Job execution start: Fri Apr 22 11:47:54 EDT 2022
Shared library path: /cm/shared/apps/cuda11.0/toolkit/11.0.3/compat:/burg/berkelbach/users/eav2136/builds/orca/5.0.3/orca:/cm/shared/apps/ucx/1.8.1/lib64:/cm/local/apps/cuda/libs/current/lib64:/cm/shared/apps/cuda11.0/toolkit/11.0.3/targets/x86_64-linux/lib:/cm/shared/apps/cuda11.0/visual-tools/11.0.3/libnvvp:/burg/opt/openmpi-4.1.1_ucx_cuda_11.0.3_support/lib:/cm/shared/apps/slurm/current/lib64/slurm:/cm/shared/apps/slurm/current/lib64
Slurm Job ID is: 1845682
Slurm Job name is: wb97x-v-peroxide-dmso_opt
g119

                                 *****************
                                 * O   R   C   A *
                                 *****************

                                            #,                                       
                                            ###                                      
                                            ####                                     
                                            #####                                    
                                            ######                                   
                                           ########,                                 
                                     ,,################,,,,,                         
                               ,,#################################,,                 
                          ,,##########################################,,             
                       ,#########################################, ''#####,          
                    ,#############################################,,   '####,        
                  ,##################################################,,,,####,       
                ,###########''''           ''''###############################       
              ,#####''   ,,,,##########,,,,          '''####'''          '####       
            ,##' ,,,,###########################,,,                        '##       
           ' ,,###''''                  '''############,,,                           
         ,,##''                                '''############,,,,        ,,,,,,###''
      ,#''                                            '''#######################'''  
     '                                                          ''''####''''         
             ,#######,   #######,   ,#######,      ##                                
            ,#'     '#,  ##    ##  ,#'     '#,    #''#        ######   ,####,        
            ##       ##  ##   ,#'  ##            #'  '#       #        #'  '#        
            ##       ##  #######   ##           ,######,      #####,   #    #        
            '#,     ,#'  ##    ##  '#,     ,#' ,#      #,         ##   #,  ,#        
             '#######'   ##     ##  '#######'  #'      '#     #####' # '####'        



                  #######################################################
                  #                        -***-                        #
                  #          Department of theory and spectroscopy      #
                  #    Directorship and core code : Frank Neese         #
                  #        Max Planck Institute fuer Kohlenforschung    #
                  #                Kaiser Wilhelm Platz 1               #
                  #                 D-45470 Muelheim/Ruhr               #
                  #                      Germany                        #
                  #                                                     #
                  #                  All rights reserved                #
                  #                        -***-                        #
                  #######################################################


                         Program Version 5.0.3 -  RELEASE  -


 With contributions from (in alphabetic order):
   Daniel Aravena         : Magnetic Suceptibility
   Michael Atanasov       : Ab Initio Ligand Field Theory (pilot matlab implementation)
   Alexander A. Auer      : GIAO ZORA, VPT2 properties, NMR spectrum
   Ute Becker             : Parallelization
   Giovanni Bistoni       : ED, misc. LED, open-shell LED, HFLD
   Martin Brehm           : Molecular dynamics
   Dmytro Bykov           : SCF Hessian
   Vijay G. Chilkuri      : MRCI spin determinant printing, contributions to CSF-ICE
   Dipayan Datta          : RHF DLPNO-CCSD density
   Achintya Kumar Dutta   : EOM-CC, STEOM-CC
   Dmitry Ganyushin       : Spin-Orbit,Spin-Spin,Magnetic field MRCI
   Miquel Garcia          : C-PCM and meta-GGA Hessian, CC/C-PCM, Gaussian charge scheme
   Yang Guo               : DLPNO-NEVPT2, F12-NEVPT2, CIM, IAO-localization
   Andreas Hansen         : Spin unrestricted coupled pair/coupled cluster methods
   Benjamin Helmich-Paris : MC-RPA, TRAH-SCF, COSX integrals
   Lee Huntington         : MR-EOM, pCC
   Robert Izsak           : Overlap fitted RIJCOSX, COSX-SCS-MP3, EOM
   Marcus Kettner         : VPT2
   Christian Kollmar      : KDIIS, OOCD, Brueckner-CCSD(T), CCSD density, CASPT2, CASPT2-K
   Simone Kossmann        : Meta GGA functionals, TD-DFT gradient, OOMP2, MP2 Hessian
   Martin Krupicka        : Initial AUTO-CI
   Lucas Lang             : DCDCAS
   Marvin Lechner         : AUTO-CI (C++ implementation), FIC-MRCC
   Dagmar Lenk            : GEPOL surface, SMD
   Dimitrios Liakos       : Extrapolation schemes; Compound Job, initial MDCI parallelization
   Dimitrios Manganas     : Further ROCIS development; embedding schemes
   Dimitrios Pantazis     : SARC Basis sets
   Anastasios Papadopoulos: AUTO-CI, single reference methods and gradients
   Taras Petrenko         : DFT Hessian,TD-DFT gradient, ASA, ECA, R-Raman, ABS, FL, XAS/XES, NRVS
   Peter Pinski           : DLPNO-MP2, DLPNO-MP2 Gradient
   Christoph Reimann      : Effective Core Potentials
   Marius Retegan         : Local ZFS, SOC
   Christoph Riplinger    : Optimizer, TS searches, QM/MM, DLPNO-CCSD(T), (RO)-DLPNO pert. Triples
   Tobias Risthaus        : Range-separated hybrids, TD-DFT gradient, RPA, STAB
   Michael Roemelt        : Original ROCIS implementation
   Masaaki Saitow         : Open-shell DLPNO-CCSD energy and density
   Barbara Sandhoefer     : DKH picture change effects
   Avijit Sen             : IP-ROCIS
   Kantharuban Sivalingam : CASSCF convergence, NEVPT2, FIC-MRCI
   Bernardo de Souza      : ESD, SOC TD-DFT
   Georgi Stoychev        : AutoAux, RI-MP2 NMR, DLPNO-MP2 response
   Willem Van den Heuvel  : Paramagnetic NMR
   Boris Wezisla          : Elementary symmetry handling
   Frank Wennmohs         : Technical directorship


 We gratefully acknowledge several colleagues who have allowed us to
 interface, adapt or use parts of their codes:
   Stefan Grimme, W. Hujo, H. Kruse, P. Pracht,  : VdW corrections, initial TS optimization,
                  C. Bannwarth, S. Ehlert          DFT functionals, gCP, sTDA/sTD-DF
   Ed Valeev, F. Pavosevic, A. Kumar             : LibInt (2-el integral package), F12 methods
   Garnet Chan, S. Sharma, J. Yang, R. Olivares  : DMRG
   Ulf Ekstrom                                   : XCFun DFT Library
   Mihaly Kallay                                 : mrcc  (arbitrary order and MRCC methods)
   Jiri Pittner, Ondrej Demel                    : Mk-CCSD
   Frank Weinhold                                : gennbo (NPA and NBO analysis)
   Christopher J. Cramer and Donald G. Truhlar   : smd solvation model
   Lars Goerigk                                  : TD-DFT with DH, B97 family of functionals
   V. Asgeirsson, H. Jonsson                     : NEB implementation
   FAccTs GmbH                                   : IRC, NEB, NEB-TS, DLPNO-Multilevel, CI-OPT
                                                   MM, QMMM, 2- and 3-layer-ONIOM, Crystal-QMMM,
                                                   LR-CPCM, SF, NACMEs, symmetry and pop. for TD-DFT,
                                                   nearIR, NL-DFT gradient (VV10), updates on ESD,
                                                   ML-optimized integration grids
   S Lehtola, MJT Oliveira, MAL Marques          : LibXC Library
   Liviu Ungur et al                             : ANISO software


 Your calculation uses the libint2 library for the computation of 2-el integrals
 For citations please refer to: http://libint.valeyev.net

 Your ORCA version has been built with support for libXC version: 5.1.0
 For citations please refer to: https://tddft.org/programs/libxc/

 This ORCA versions uses:
   CBLAS   interface :  Fast vector & matrix operations
   LAPACKE interface :  Fast linear algebra routines
   SCALAPACK package :  Parallel linear algebra routines
   Shared memory     :  Shared parallel matrices
   BLAS/LAPACK       :  OpenBLAS 0.3.15  USE64BITINT DYNAMIC_ARCH NO_AFFINITY SkylakeX SINGLE_THREADED
        Core in use  :  SkylakeX
   Copyright (c) 2011-2014, The OpenBLAS Project


Your calculation utilizes the DFT-NL dispersion correction.
Cite in your paper:
Vydrov, O. A.; Van Voorhis, T. J. Chem. Phys. 2010, 133, 244103
Hujo, W.; Grimme, S. J. Chem. Theory Comput. 2011, 7, 3866 
   

Your calculation utilizes the SMD solvation module
Please cite in your paper:
A.V. Marenich, C.J. Cramer, D.G. Truhlar J. Phys. Chem. B, 113, (2009), 6378 

================================================================================

----- Orbital basis set information -----
Your calculation utilizes the basis: def2-TZVP
   F. Weigend and R. Ahlrichs, Phys. Chem. Chem. Phys. 7, 3297 (2005).

----- AuxJ basis set information -----
Your calculation utilizes the auxiliary basis: def2/J
   F. Weigend, Phys. Chem. Chem. Phys. 8, 1057 (2006).

================================================================================
                                        WARNINGS
                       Please study these warnings very carefully!
================================================================================


WARNING: Geometry Optimization
  ===> : Switching off AutoStart
         For restart on a previous wavefunction, please use MOREAD

WARNING: Analytic gradients for DFT-NL dispersion can only be done using the self-consistent method,
  ===>   Switching to SCNL

WARNING: Self-consistent DFT-NL dispersion not compatible with AutoTRAH.
  ===>   Switching AutoTRAH off


INFO   : the flag for use of the SHARK integral package has been found!

================================================================================
                                       INPUT FILE
================================================================================
NAME = /burg/berkelbach/users/eav2136/projects/peroxide_dissociation/05_range_separated_functional/wb97x-v-peroxide-dmso/wb97x-v-peroxide-dmso_opt.inp
|  1> ! UKS wB97X-V def2-TZVP TIGHTSCF Opt CPCM PAL8
|  2> %maxcore 5000
|  3> %cpcm
|  4> smd true
|  5> SMDsolvent "DMSO"
|  6> end
|  7> * xyz 0 1
|  8>  C -0.07425707479814 6.45007760366319 3.54636897867849
|  9>  S 1.48979584793712 6.08048225687873 2.75598260255209
| 10>  C 1.14936654141856 4.63662227087222 1.83369205968326
| 11>  C -0.09136557109480 4.00305286554088 1.79338352444578
| 12>  C -0.25826928718407 2.84269542505768 1.05936282240646
| 13>  C 0.80050967676942 2.30271389692801 0.33923873907232
| 14>  C 2.02875697338567 2.96040825022008 0.34201900047512
| 15>  C 2.20764771123846 4.10330343094754 1.09121055149825
| 16>  C 0.66254428710301 1.09941809961861 -0.50690159852297
| 17>  O 0.00000000000000 0.00000000000000 0.00000000000000
| 18>  O 1.06713866538631 0.98717129960580 -1.62357736506780
| 19>  O 0.00000000000000 0.00000000000000 1.41527284498687
| 20>  C -1.27388770944479 0.00000000000000 1.91590645535523
| 21>  C -1.22211457253867 0.06642777988277 3.38831477989974
| 22>  O -2.25742922897412 -0.02585779042736 1.23875652957256
| 23>  C -2.41543940252313 -0.12289611375011 4.08595252694906
| 24>  C -2.44195923478874 -0.03437680070658 5.45887710053507
| 25>  C -1.27275068522395 0.25496212808386 6.17298493884884
| 26>  C -0.08177795586127 0.45060655108151 5.47518008098465
| 27>  C -0.05890441770979 0.35440376081578 4.09544628781756
| 28>  S -1.42666733932306 0.34986111841343 7.90788531117200
| 29>  C 0.24316058065577 0.68495422113854 8.46194522255982
| 30>  H 0.10416325535368 7.34607684664392 4.14087383255362
| 31>  H -0.38882275224257 5.64387294862163 4.21002028523424
| 32>  H -0.85323854703301 6.66443357654391 2.81385647784552
| 33>  H -0.93700004363157 4.40513362395569 2.33421606140266
| 34>  H -1.23507439683237 2.37497021944690 1.02749021968162
| 35>  H 2.84544686618639 2.55882587909200 -0.24576673820719
| 36>  H 3.17295340310622 4.59670965109571 1.10248346369500
| 37>  H -3.31769085302541 -0.33900022625314 3.52707230389961
| 38>  H -3.37188538809726 -0.18808364875198 5.99464715790180
| 39>  H 0.83479761044422 0.68252071425859 5.99988733430662
| 40>  H 0.87046926144621 0.51883617942438 3.56602510045047
| 41>  H 0.18454114424639 0.73729393679500 9.54909076814075
| 42>  H 0.60864534290486 1.64029462399245 8.08374213903351
| 43>  H 0.92507514742305 -0.11949528816653 8.18458994466104
| 44> *
| 45> 
| 46>                          ****END OF INPUT****
================================================================================

                       *****************************
                       * Geometry Optimization Run *
                       *****************************

Geometry optimization settings:
Update method            Update   .... BFGS
Choice of coordinates    CoordSys .... Z-matrix Internals
Initial Hessian          InHess   .... Almoef's Model

Convergence Tolerances:
Energy Change            TolE     ....  5.0000e-06 Eh
Max. Gradient            TolMAXG  ....  3.0000e-04 Eh/bohr
RMS Gradient             TolRMSG  ....  1.0000e-04 Eh/bohr
Max. Displacement        TolMAXD  ....  4.0000e-03 bohr
RMS Displacement         TolRMSD  ....  2.0000e-03 bohr
Strict Convergence                ....  False
------------------------------------------------------------------------------
                        ORCA OPTIMIZATION COORDINATE SETUP
------------------------------------------------------------------------------

The optimization will be done in new redundant internal coordinates
Making redundant internal coordinates   ...  (new redundants) done
Evaluating the initial hessian          ...  (Almloef) done
Evaluating the coordinates              ...  done
Calculating the B-matrix                .... done
Calculating the G-matrix                .... done
Diagonalizing the G-matrix              .... done
Small eigenvalue found = 6.813e-04
Small eigenvalue found = 1.847e-03
Small eigenvalue found = 4.132e-03
Small eigenvalue found = 1.197e-02
Small eigenvalue found = 1.299e-02
Small eigenvalue found = 2.647e-02
The first mode is                       ....   64
The number of degrees of freedom        ....  102

    -----------------------------------------------------------------
                    Redundant Internal Coordinates


    -----------------------------------------------------------------
         Definition                    Initial Value    Approx d2E/dq
    -----------------------------------------------------------------
      1. B(S   1,C   0)                  1.7910         0.386175   
      2. B(C   2,S   1)                  1.7468         0.454240   
      3. B(C   3,C   2)                  1.3937         0.616320   
      4. B(C   4,C   3)                  1.3831         0.640745   
      5. B(C   5,C   4)                  1.3897         0.625563   
      6. B(C   6,C   5)                  1.3933         0.617369   
      7. B(C   7,C   2)                  1.3985         0.605696   
      8. B(C   7,C   6)                  1.3782         0.652421   
      9. B(C   8,C   5)                  1.4775         0.453096   
     10. B(O   9,C   8)                  1.3801         0.580356   
     11. B(O  10,C   8)                  1.1930         1.153901   
     12. B(O  11,O   9)                  1.4153         0.456763   
     13. B(C  12,O  11)                  1.3687         0.605075   
     14. B(C  13,C  12)                  1.4748         0.457532   
     15. B(O  14,C  12)                  1.1944         1.148067   
     16. B(C  15,C  13)                  1.3952         0.612988   
     17. B(C  16,C  15)                  1.3760         0.657696   
     18. B(C  17,C  16)                  1.4003         0.601695   
     19. B(C  18,C  17)                  1.3941         0.615367   
     20. B(C  19,C  18)                  1.3833         0.640430   
     21. B(C  19,C  13)                  1.3914         0.621567   
     22. B(S  20,C  17)                  1.7443         0.458402   
     23. B(C  21,S  20)                  1.7910         0.386167   
     24. B(H  22,C   0)                  1.0900         0.360109   
     25. B(H  23,C   0)                  1.0906         0.359342   
     26. B(H  24,C   0)                  1.0906         0.359351   
     27. B(H  25,C   3)                  1.0813         0.371759   
     28. B(H  26,C   4)                  1.0835         0.368828   
     29. B(H  27,C   6)                  1.0834         0.368946   
     30. B(H  28,C   7)                  1.0842         0.367916   
     31. B(H  29,C  15)                  1.0831         0.369344   
     32. B(H  30,C  16)                  1.0842         0.367887   
     33. B(H  31,C  18)                  1.0813         0.371793   
     34. B(H  32,C  19)                  1.0822         0.370628   
     35. B(H  33,C  21)                  1.0900         0.360124   
     36. B(H  34,C  21)                  1.0905         0.359378   
     37. B(H  35,C  21)                  1.0904         0.359511   
     38. A(H  22,C   0,H  23)          108.8436         0.290744   
     39. A(H  22,C   0,H  24)          108.7656         0.290746   
     40. A(S   1,C   0,H  24)          111.5879         0.342618   
     41. A(S   1,C   0,H  23)          111.5859         0.342616   
     42. A(H  23,C   0,H  24)          110.3658         0.290648   
     43. A(S   1,C   0,H  22)          105.5091         0.342738   
     44. A(C   0,S   1,C   2)          103.4970         0.419917   
     45. A(C   3,C   2,C   7)          119.0102         0.431786   
     46. A(S   1,C   2,C   3)          124.3692         0.432719   
     47. A(S   1,C   2,C   7)          116.6202         0.431369   
     48. A(C   2,C   3,C   4)          120.2744         0.436178   
     49. A(C   4,C   3,H  25)          118.8821         0.356807   
     50. A(C   2,C   3,H  25)          120.8433         0.354461   
     51. A(C   5,C   4,H  26)          120.2581         0.354880   
     52. A(C   3,C   4,H  26)          119.1145         0.356327   
     53. A(C   3,C   4,C   5)          120.6005         0.437350   
     54. A(C   4,C   5,C   6)          119.1567         0.434432   
     55. A(C   4,C   5,C   8)          122.8259         0.411072   
     56. A(C   6,C   5,C   8)          117.8994         0.410112   
     57. A(C   7,C   6,H  27)          120.2952         0.357442   
     58. A(C   5,C   6,H  27)          119.2412         0.354107   
     59. A(C   5,C   6,C   7)          120.4618         0.437734   
     60. A(C   6,C   7,H  28)          119.9087         0.357272   
     61. A(C   2,C   7,H  28)          119.6508         0.352797   
     62. A(C   2,C   7,C   6)          120.4398         0.436231   
     63. A(O   9,C   8,O  10)          115.5727         0.473849   
     64. A(C   5,C   8,O  10)          125.5219         0.455899   
     65. A(C   5,C   8,O   9)          118.8999         0.403044   
     66. A(C   8,O   9,O  11)          111.5490         0.398410   
     67. A(O   9,O  11,C  12)          111.4547         0.401345   
     68. A(C  13,C  12,O  14)          126.5770         0.456288   
     69. A(O  11,C  12,O  14)          123.9896         0.477054   
     70. A(O  11,C  12,C  13)          109.4203         0.406723   
     71. A(C  12,C  13,C  19)          123.0966         0.411315   
     72. A(C  15,C  13,C  19)          119.2748         0.433376   
     73. A(C  12,C  13,C  15)          117.5858         0.410303   
     74. A(C  16,C  15,H  29)          120.7715         0.357997   
     75. A(C  13,C  15,H  29)          118.7871         0.353745   
     76. A(C  13,C  15,C  16)          120.4413         0.437808   
     77. A(C  17,C  16,H  30)          119.5691         0.352397   
     78. A(C  15,C  16,H  30)          120.0309         0.357757   
     79. A(C  15,C  16,C  17)          120.3999         0.436343   
     80. A(C  16,C  17,S  20)          116.4104         0.431562   
     81. A(C  18,C  17,S  20)          124.4423         0.433309   
     82. A(C  16,C  17,C  18)          119.1469         0.431152   
     83. A(C  17,C  18,C  19)          120.2393         0.436018   
     84. A(C  19,C  18,H  31)          119.0068         0.356782   
     85. A(C  17,C  18,H  31)          120.7535         0.354374   
     86. A(C  13,C  19,C  18)          120.4962         0.436806   
     87. A(C  18,C  19,H  32)          119.4465         0.356592   
     88. A(C  13,C  19,H  32)          120.0518         0.354788   
     89. A(C  17,S  20,C  21)          103.6272         0.420599   
     90. A(H  34,C  21,H  35)          110.3939         0.290673   
     91. A(H  33,C  21,H  35)          108.8290         0.290768   
     92. A(S  20,C  21,H  35)          111.4899         0.342642   
     93. A(H  33,C  21,H  34)          108.7753         0.290751   
     94. A(S  20,C  21,H  34)          111.6593         0.342620   
     95. A(S  20,C  21,H  33)          105.5095         0.342739   
     96. D(C   2,S   1,C   0,H  22)    179.5234         0.003898   
     97. D(C   2,S   1,C   0,H  23)     61.4721         0.003898   
     98. D(C   2,S   1,C   0,H  24)    -62.5176         0.003898   
     99. D(C   3,C   2,S   1,C   0)      0.0768         0.004531   
    100. D(C   7,C   2,S   1,C   0)    179.8441         0.004531   
    101. D(C   4,C   3,C   2,C   7)      1.8479         0.026266   
    102. D(C   4,C   3,C   2,S   1)   -178.3900         0.026266   
    103. D(H  25,C   3,C   2,C   7)   -178.3097         0.026266   
    104. D(H  25,C   3,C   2,S   1)      1.4524         0.026266   
    105. D(H  26,C   4,C   3,H  25)      1.1825         0.028529   
    106. D(H  26,C   4,C   3,C   2)   -178.9720         0.028529   
    107. D(C   5,C   4,C   3,H  25)    179.3028         0.028529   
    108. D(C   5,C   4,C   3,C   2)     -0.8517         0.028529   
    109. D(C   6,C   5,C   4,H  26)    176.7603         0.027109   
    110. D(C   6,C   5,C   4,C   3)     -1.3385         0.027109   
    111. D(C   8,C   5,C   4,C   3)   -177.3042         0.027109   
    112. D(C   8,C   5,C   4,H  26)      0.7946         0.027109   
    113. D(H  27,C   6,C   5,C   8)     -1.7852         0.026361   
    114. D(H  27,C   6,C   5,C   4)   -177.9495         0.026361   
    115. D(C   7,C   6,C   5,C   8)    178.6982         0.026361   
    116. D(C   7,C   6,C   5,C   4)      2.5338         0.026361   
    117. D(H  28,C   7,C   6,H  27)     -0.7379         0.029652   
    118. D(H  28,C   7,C   6,C   5)    178.7736         0.029652   
    119. D(C   2,C   7,C   6,H  27)    178.9472         0.029652   
    120. D(C   2,C   7,C   6,C   5)     -1.5413         0.029652   
    121. D(H  28,C   7,C   2,C   3)    179.0287         0.025317   
    122. D(H  28,C   7,C   2,S   1)     -0.7516         0.025317   
    123. D(C   6,C   7,C   2,C   3)     -0.6572         0.025317   
    124. D(C   6,C   7,C   2,S   1)    179.5625         0.025317   
    125. D(O   9,C   8,C   5,C   6)    137.7156         0.013991   
    126. D(O   9,C   8,C   5,C   4)    -46.2708         0.013991   
    127. D(O  10,C   8,C   5,C   6)    -43.1749         0.013991   
    128. D(O  10,C   8,C   5,C   4)    132.8388         0.013991   
    129. D(O  11,O   9,C   8,O  10)    157.9229         0.024498   
    130. D(O  11,O   9,C   8,C   5)    -22.8806         0.024498   
    131. D(C  12,O  11,O   9,C   8)    121.0745         0.015467   
    132. D(O  14,C  12,O  11,O   9)      1.4962         0.026770   
    133. D(C  13,C  12,O  11,O   9)   -177.2626         0.026770   
    134. D(C  19,C  13,C  12,O  14)   -167.0428         0.014262   
    135. D(C  19,C  13,C  12,O  11)     11.6757         0.014262   
    136. D(C  15,C  13,C  12,O  14)     10.5550         0.014262   
    137. D(C  15,C  13,C  12,O  11)   -170.7265         0.014262   
    138. D(H  29,C  15,C  13,C  19)    179.5255         0.025966   
    139. D(H  29,C  15,C  13,C  12)      1.8326         0.025966   
    140. D(C  16,C  15,C  13,C  19)     -0.4006         0.025966   
    141. D(C  16,C  15,C  13,C  12)   -178.0935         0.025966   
    142. D(H  30,C  16,C  15,H  29)      0.4119         0.030169   
    143. D(H  30,C  16,C  15,C  13)   -179.6635         0.030169   
    144. D(C  17,C  16,C  15,H  29)   -179.5362         0.030169   
    145. D(C  17,C  16,C  15,C  13)      0.3884         0.030169   
    146. D(S  20,C  17,C  16,H  30)     -0.2280         0.024966   
    147. D(S  20,C  17,C  16,C  15)    179.7203         0.024966   
    148. D(C  18,C  17,C  16,H  30)    179.9814         0.024966   
    149. D(C  18,C  17,C  16,C  15)     -0.0703         0.024966   
    150. D(H  31,C  18,C  17,S  20)     -0.2266         0.026180   
    151. D(H  31,C  18,C  17,C  16)    179.5460         0.026180   
    152. D(C  19,C  18,C  17,S  20)    179.9944         0.026180   
    153. D(C  19,C  18,C  17,C  16)     -0.2330         0.026180   
    154. D(C  13,C  19,C  18,C  17)      0.2195         0.028499   
    155. D(H  32,C  19,C  13,C  15)   -179.0463         0.026742   
    156. D(H  32,C  19,C  13,C  12)     -1.4873         0.026742   
    157. D(C  18,C  19,C  13,C  15)      0.0962         0.026742   
    158. D(C  18,C  19,C  13,C  12)    177.6553         0.026742   
    159. D(H  32,C  19,C  18,H  31)     -0.4157         0.028499   
    160. D(H  32,C  19,C  18,C  17)    179.3672         0.028499   
    161. D(C  13,C  19,C  18,H  31)   -179.5634         0.028499   
    162. D(C  21,S  20,C  17,C  18)     -1.6462         0.004589   
    163. D(C  21,S  20,C  17,C  16)    178.5756         0.004589   
    164. D(H  35,C  21,S  20,C  17)    -61.2749         0.003898   
    165. D(H  34,C  21,S  20,C  17)     62.7331         0.003898   
    166. D(H  33,C  21,S  20,C  17)   -179.2586         0.003898   
    -----------------------------------------------------------------

Number of atoms                         .... 36
Number of degrees of freedom            .... 166

         *************************************************************
         *                GEOMETRY OPTIMIZATION CYCLE   1            *
         *************************************************************
---------------------------------
CARTESIAN COORDINATES (ANGSTROEM)
---------------------------------
  C     -0.074257    6.450078    3.546369
  S      1.489796    6.080482    2.755983
  C      1.149367    4.636622    1.833692
  C     -0.091366    4.003053    1.793384
  C     -0.258269    2.842695    1.059363
  C      0.800510    2.302714    0.339239
  C      2.028757    2.960408    0.342019
  C      2.207648    4.103303    1.091211
  C      0.662544    1.099418   -0.506902
  O      0.000000    0.000000    0.000000
  O      1.067139    0.987171   -1.623577
  O      0.000000    0.000000    1.415273
  C     -1.273888    0.000000    1.915906
  C     -1.222115    0.066428    3.388315
  O     -2.257429   -0.025858    1.238757
  C     -2.415439   -0.122896    4.085953
  C     -2.441959   -0.034377    5.458877
  C     -1.272751    0.254962    6.172985
  C     -0.081778    0.450607    5.475180
  C     -0.058904    0.354404    4.095446
  S     -1.426667    0.349861    7.907885
  C      0.243161    0.684954    8.461945
  H      0.104163    7.346077    4.140874
  H     -0.388823    5.643873    4.210020
  H     -0.853239    6.664434    2.813856
  H     -0.937000    4.405134    2.334216
  H     -1.235074    2.374970    1.027490
  H      2.845447    2.558826   -0.245767
  H      3.172953    4.596710    1.102483
  H     -3.317691   -0.339000    3.527072
  H     -3.371885   -0.188084    5.994647
  H      0.834798    0.682521    5.999887
  H      0.870469    0.518836    3.566025
  H      0.184541    0.737294    9.549091
  H      0.608645    1.640295    8.083742
  H      0.925075   -0.119495    8.184590

----------------------------
CARTESIAN COORDINATES (A.U.)
----------------------------
  NO LB      ZA    FRAG     MASS         X           Y           Z
   0 C     6.0000    0    12.011   -0.140326   12.188880    6.701666
   1 S    16.0000    0    32.060    2.815306   11.490446    5.208052
   2 C     6.0000    0    12.011    2.171988    8.761946    3.465176
   3 C     6.0000    0    12.011   -0.172656    7.564674    3.389004
   4 C     6.0000    0    12.011   -0.488058    5.371916    2.001906
   5 C     6.0000    0    12.011    1.512744    4.351499    0.641068
   6 C     6.0000    0    12.011    3.833795    5.594361    0.646322
   7 C     6.0000    0    12.011    4.171850    7.754120    2.062089
   8 C     6.0000    0    12.011    1.252027    2.077599   -0.957905
   9 O     8.0000    0    15.999    0.000000    0.000000    0.000000
  10 O     8.0000    0    15.999    2.016600    1.865483   -3.068117
  11 O     8.0000    0    15.999    0.000000    0.000000    2.674478
  12 C     6.0000    0    12.011   -2.407299    0.000000    3.620538
  13 C     6.0000    0    12.011   -2.309462    0.125530    6.402987
  14 O     8.0000    0    15.999   -4.265923   -0.048864    2.340911
  15 C     6.0000    0    12.011   -4.564519   -0.232240    7.721331
  16 C     6.0000    0    12.011   -4.614634   -0.064963   10.315783
  17 C     6.0000    0    12.011   -2.405150    0.481809   11.665251
  18 C     6.0000    0    12.011   -0.154538    0.851523   10.346591
  19 C     6.0000    0    12.011   -0.111313    0.669726    7.739272
  20 S    16.0000    0    32.060   -2.696011    0.661142   14.943738
  21 C     6.0000    0    12.011    0.459507    1.294376   15.990759
  22 H     1.0000    0     1.008    0.196840   13.882073    7.825117
  23 H     1.0000    0     1.008   -0.734769   10.665374    7.955785
  24 H     1.0000    0     1.008   -1.612387   12.593954    5.317418
  25 H     1.0000    0     1.008   -1.770673    8.324496    4.411029
  26 H     1.0000    0     1.008   -2.333952    4.488043    1.941675
  27 H     1.0000    0     1.008    5.377115    4.835480   -0.464432
  28 H     1.0000    0     1.008    5.996013    8.686522    2.083392
  29 H     1.0000    0     1.008   -6.269527   -0.640618    6.665201
  30 H     1.0000    0     1.008   -6.371940   -0.355427   11.328241
  31 H     1.0000    0     1.008    1.577539    1.289777   11.338144
  32 H     1.0000    0     1.008    1.644949    0.980458    6.738811
  33 H     1.0000    0     1.008    0.348732    1.393284   18.045166
  34 H     1.0000    0     1.008    1.150173    3.099708   15.276059
  35 H     1.0000    0     1.008    1.748139   -0.225813   15.466634

--------------------------------
INTERNAL COORDINATES (ANGSTROEM)
--------------------------------
 C      0   0   0     0.000000000000     0.00000000     0.00000000
 S      1   0   0     1.790969818017     0.00000000     0.00000000
 C      2   1   0     1.746780929995   103.49703222     0.00000000
 C      3   2   1     1.393718459520   124.36918170     0.07682297
 C      4   3   2     1.383138688329   120.27439762   181.60997218
 C      5   4   3     1.389666017657   120.60050203   359.14829865
 C      6   5   4     1.393255545064   119.15672375   358.66151732
 C      7   6   5     1.378223229504   120.46180539     2.53383799
 C      6   5   4     1.477466986255   122.82593719   182.69580816
 O      9   6   5     1.380084896203   118.89987975   313.72924568
 O      9   6   5     1.193004913083   125.52191253   132.83876530
 O     10   9   6     1.415272844987   111.54903739   337.11941713
 C     12  10   9     1.368730765383   111.45466078   121.07450275
 C     13  12  10     1.474815033092   109.42032141   182.73741157
 O     13  12  10     1.194384598005   123.98959865     1.49620750
 C     14  13  12     1.395193933712   117.58575536   189.27346256
 C     16  14  13     1.376030833609   120.44129595   181.90648253
 C     17  16  14     1.400255566970   120.39992501     0.38844050
 C     18  17  16     1.394139305089   119.14686446   359.92970699
 C     19  18  17     1.383272755320   120.23932774   359.76697987
 S     18  17  16     1.744297983907   116.41043178   179.72028820
 C     21  18  17     1.790976006328   103.62720090   178.57561880
 H      1   2   3     1.089992880213   105.50910599   179.52342869
 H      1   2   3     1.090573504139   111.58592171    61.47211732
 H      1   2   3     1.090566449636   111.58785041   297.48242808
 H      4   3   2     1.081326236832   120.84329981     1.45240478
 H      5   4   3     1.083480942612   119.11451180   181.02803207
 H      7   6   5     1.083394137146   119.24119758   182.05045369
 H      8   7   6     1.084154903776   119.90872766   178.77361985
 H     16  14  13     1.083100074365   118.78711222     1.83264212
 H     17  16  14     1.084176184997   120.03093279   180.33653865
 H     19  18  17     1.081301368500   120.75351253   179.54600540
 H     20  19  18     1.082155372130   119.44648422   179.36717552
 H     22  21  18     1.089982165651   105.50954915   180.74135630
 H     22  21  18     1.090546637769   111.65925285    62.73308778
 H     22  21  18     1.090445981958   111.48990618   298.72507539

---------------------------
INTERNAL COORDINATES (A.U.)
---------------------------
 C      0   0   0     0.000000000000     0.00000000     0.00000000
 S      1   0   0     3.384442470171     0.00000000     0.00000000
 C      2   1   0     3.300937573646   103.49703222     0.00000000
 C      3   2   1     2.633746196283   124.36918170     0.07682297
 C      4   3   2     2.613753326172   120.27439762   181.60997218
 C      5   4   3     2.626088190988   120.60050203   359.14829865
 C      6   5   4     2.632871414738   119.15672375   358.66151732
 C      7   6   5     2.604464455171   120.46180539     2.53383799
 C      6   5   4     2.792007975932   122.82593719   182.69580816
 O      9   6   5     2.607982495384   118.89987975   313.72924568
 O      9   6   5     2.254452562149   125.52191253   132.83876530
 O     10   9   6     2.674478081801   111.54903739   337.11941713
 C     12  10   9     2.586526297646   111.45466078   121.07450275
 C     13  12  10     2.786996510733   109.42032141   182.73741157
 O     13  12  10     2.257059788803   123.98959865     1.49620750
 C     14  13  12     2.636534438423   117.58575536   189.27346256
 C     16  14  13     2.600321427352   120.44129595   181.90648253
 C     17  16  14     2.646099539072   120.39992501     0.38844050
 C     18  17  16     2.634541479154   119.14686446   359.92970699
 C     19  18  17     2.614006676069   120.23932774   359.76697987
 S     18  17  16     3.296245485535   116.41043178   179.72028820
 C     21  18  17     3.384454164384   103.62720090   178.57561880
 H      1   2   3     2.059788031526   105.50910599   179.52342869
 H      1   2   3     2.060885251733   111.58592171    61.47211732
 H      1   2   3     2.060871920655   111.58785041   297.48242808
 H      4   3   2     2.043410449036   120.84329981     1.45240478
 H      5   4   3     2.047482252859   119.11451180   181.02803207
 H      7   6   5     2.047318214302   119.24119758   182.05045369
 H      8   7   6     2.048755854885   119.90872766   178.77361985
 H     16  14  13     2.046762516180   118.78711222     1.83264212
 H     17  16  14     2.048796070563   120.03093279   180.33653865
 H     19  18  17     2.043363454698   120.75351253   179.54600540
 H     20  19  18     2.044977287678   119.44648422   179.36717552
 H     22  21  18     2.059767783938   105.50954915   180.74135630
 H     22  21  18     2.060834481653   111.65925285    62.73308778
 H     22  21  18     2.060644269736   111.48990618   298.72507539

---------------------
BASIS SET INFORMATION
---------------------
There are 4 groups of distinct atoms

 Group   1 Type C   : 11s6p2d1f contracted to 5s3p2d1f pattern {62111/411/11/1}
 Group   2 Type S   : 14s9p3d1f contracted to 5s5p2d1f pattern {73211/51111/21/1}
 Group   3 Type O   : 11s6p2d1f contracted to 5s3p2d1f pattern {62111/411/11/1}
 Group   4 Type H   : 5s1p contracted to 3s1p pattern {311/1}

Atom   0C    basis set group =>   1
Atom   1S    basis set group =>   2
Atom   2C    basis set group =>   1
Atom   3C    basis set group =>   1
Atom   4C    basis set group =>   1
Atom   5C    basis set group =>   1
Atom   6C    basis set group =>   1
Atom   7C    basis set group =>   1
Atom   8C    basis set group =>   1
Atom   9O    basis set group =>   3
Atom  10O    basis set group =>   3
Atom  11O    basis set group =>   3
Atom  12C    basis set group =>   1
Atom  13C    basis set group =>   1
Atom  14O    basis set group =>   3
Atom  15C    basis set group =>   1
Atom  16C    basis set group =>   1
Atom  17C    basis set group =>   1
Atom  18C    basis set group =>   1
Atom  19C    basis set group =>   1
Atom  20S    basis set group =>   2
Atom  21C    basis set group =>   1
Atom  22H    basis set group =>   4
Atom  23H    basis set group =>   4
Atom  24H    basis set group =>   4
Atom  25H    basis set group =>   4
Atom  26H    basis set group =>   4
Atom  27H    basis set group =>   4
Atom  28H    basis set group =>   4
Atom  29H    basis set group =>   4
Atom  30H    basis set group =>   4
Atom  31H    basis set group =>   4
Atom  32H    basis set group =>   4
Atom  33H    basis set group =>   4
Atom  34H    basis set group =>   4
Atom  35H    basis set group =>   4
---------------------------------
AUXILIARY/J BASIS SET INFORMATION
---------------------------------
There are 4 groups of distinct atoms

 Group   1 Type C   : 12s5p4d2f1g contracted to 6s4p3d1f1g pattern {711111/2111/211/2/1}
 Group   2 Type S   : 14s5p5d2f1g contracted to 8s4p3d1f1g pattern {71111111/2111/311/2/1}
 Group   3 Type O   : 12s5p4d2f1g contracted to 6s4p3d1f1g pattern {711111/2111/211/2/1}
 Group   4 Type H   : 5s2p1d contracted to 3s1p1d pattern {311/2/1}

Atom   0C    basis set group =>   1
Atom   1S    basis set group =>   2
Atom   2C    basis set group =>   1
Atom   3C    basis set group =>   1
Atom   4C    basis set group =>   1
Atom   5C    basis set group =>   1
Atom   6C    basis set group =>   1
Atom   7C    basis set group =>   1
Atom   8C    basis set group =>   1
Atom   9O    basis set group =>   3
Atom  10O    basis set group =>   3
Atom  11O    basis set group =>   3
Atom  12C    basis set group =>   1
Atom  13C    basis set group =>   1
Atom  14O    basis set group =>   3
Atom  15C    basis set group =>   1
Atom  16C    basis set group =>   1
Atom  17C    basis set group =>   1
Atom  18C    basis set group =>   1
Atom  19C    basis set group =>   1
Atom  20S    basis set group =>   2
Atom  21C    basis set group =>   1
Atom  22H    basis set group =>   4
Atom  23H    basis set group =>   4
Atom  24H    basis set group =>   4
Atom  25H    basis set group =>   4
Atom  26H    basis set group =>   4
Atom  27H    basis set group =>   4
Atom  28H    basis set group =>   4
Atom  29H    basis set group =>   4
Atom  30H    basis set group =>   4
Atom  31H    basis set group =>   4
Atom  32H    basis set group =>   4
Atom  33H    basis set group =>   4
Atom  34H    basis set group =>   4
Atom  35H    basis set group =>   4


           ************************************************************
           *        Program running with 8 parallel MPI-processes     *
           *              working on a common directory               *
           ************************************************************
------------------------------------------------------------------------------
                           ORCA GTO INTEGRAL CALCULATION
                           -- RI-GTO INTEGRALS CHOSEN --
------------------------------------------------------------------------------
------------------------------------------------------------------------------
                   ___                                                        
                  /   \      - P O W E R E D   B Y -                         
                 /     \                                                     
                 |  |  |   _    _      __       _____    __    __             
                 |  |  |  | |  | |    /  \     |  _  \  |  |  /  |          
                  \  \/   | |  | |   /    \    | | | |  |  | /  /          
                 / \  \   | |__| |  /  /\  \   | |_| |  |  |/  /          
                |  |  |   |  __  | /  /__\  \  |    /   |      \           
                |  |  |   | |  | | |   __   |  |    \   |  |\   \          
                \     /   | |  | | |  |  |  |  | |\  \  |  | \   \       
                 \___/    |_|  |_| |__|  |__|  |_| \__\ |__|  \__/        
                                                                              
                      - O R C A' S   B I G   F R I E N D -                    
                                      &                                       
                       - I N T E G R A L  F E E D E R -                       
                                                                              
 v1 FN, 2020, v2 2021                                                         
------------------------------------------------------------------------------


Reading SHARK input file /burg/berkelbach/users/eav2136/projects/peroxide_dissociation/05_range_separated_functional/wb97x-v-peroxide-dmso/wb97x-v-peroxide-dmso_opt.SHARKINP.tmp ... ok
----------------------
SHARK INTEGRAL PACKAGE
----------------------

Number of atoms                             ...     36
Number of basis functions                   ...    778
Number of shells                            ...    302
Maximum angular momentum                    ...      3
Integral batch strategy                     ... SHARK/LIBINT Hybrid
RI-J (if used) integral strategy            ... SPLIT-RIJ (Revised 2003 algorithm where possible)
Printlevel                                  ...      1
Contraction scheme used                     ... SEGMENTED contraction
Coulomb Range Separation                    ... NOT USED
Exchange Range Separation                   ... Long Range
   Mu parameter                             ...  0.300000
   Scaling (regular/separated)              ...  0.167000  0.833000
Finite Nucleus Model                        ... NOT USED
Auxiliary Coulomb fitting basis             ... AVAILABLE
   # of basis functions in Aux-J            ...   1236
   # of shells in Aux-J                     ...    404
   Maximum angular momentum in Aux-J        ...      4
Auxiliary J/K fitting basis                 ... NOT available
Auxiliary Correlation fitting basis         ... NOT available
Auxiliary 'external' fitting basis          ... NOT available
Integral threshold                          ...     2.500000e-11
Primitive cut-off                           ...     2.500000e-12
Primitive pair pre-selection threshold      ...     2.500000e-12

Calculating pre-screening integrals         ... done (  0.1 sec) Dimension = 302
Organizing shell pair data                  ... done (  0.8 sec)
Shell pair information
Total number of shell pairs                 ...     45753
Shell pairs after pre-screening             ...     30707
Total number of primitive shell pairs       ...    145545
Primitive shell pairs kept                  ...     63502
          la=0 lb=0:   7523 shell pairs
          la=1 lb=0:   8937 shell pairs
          la=1 lb=1:   2674 shell pairs
          la=2 lb=0:   4331 shell pairs
          la=2 lb=1:   2602 shell pairs
          la=2 lb=2:    662 shell pairs
          la=3 lb=0:   2019 shell pairs
          la=3 lb=1:   1229 shell pairs
          la=3 lb=2:    589 shell pairs
          la=3 lb=3:    141 shell pairs

Calculating one electron integrals          ... done (  0.4 sec)
Calculating RI/J V-Matrix + Cholesky decomp.... done (  1.3 sec)
Calculating Nuclear repulsion               ... done (  0.0 sec) ENN=   1970.142246923818 Eh

SHARK setup successfully completed in   8.1 seconds

Maximum memory used throughout the entire GTOINT-calculation: 49.0 MB


           ************************************************************
           *        Program running with 8 parallel MPI-processes     *
           *              working on a common directory               *
           ************************************************************
-------------------------------------------------------------------------------
                                 ORCA SCF
-------------------------------------------------------------------------------

------------
SCF SETTINGS
------------
Hamiltonian:
 Density Functional     Method          .... DFT(GTOs)
 Exchange Functional    Exchange        .... WB97X-V
 Correlation Functional Correlation     .... WB97X-V
 Gradients option       PostSCFGGA      .... off
 Hybrid DFT is turned on
   Fraction HF Exchange ScalHFX         ....  0.167000
   Scaling of DF-GGA-X  ScalDFX         ....  0.000000
   Scaling of DF-GGA-C  ScalDFC         ....  1.000000
   Scaling of DF-LDA-C  ScalLDAC        ....  1.000000
   Perturbative correction              ....  0.000000
   Density functional embedding theory  .... OFF
 Long-range corrected/Screened/Range-Separated Hybrid DFT is turned on
   Amount of maximum screened exact exchange              ....  0.833000
   Range separation parameter mu (erf(mu*r12)/r12)        ....  0.300000
   NL short-range parameter             ....  6.000000
   NL long-range parameter              ....  0.010000
 RI-approximation to the Coulomb term is turned on
   Number of AuxJ basis functions       .... 1236
   RIJ-COSX (HFX calculated with COS-X)).... on


General Settings:
 Integral files         IntName         .... /burg/berkelbach/users/eav2136/projects/peroxide_dissociation/05_range_separated_functional/wb97x-v-peroxide-dmso/wb97x-v-peroxide-dmso_opt
 Hartree-Fock type      HFTyp           .... UHF
 Total Charge           Charge          ....    0
 Multiplicity           Mult            ....    1
 Number of Electrons    NEL             ....  174
 Basis Dimension        Dim             ....  778
 Nuclear Repulsion      ENuc            ....   1970.1422469238 Eh

Convergence Acceleration:
 DIIS                   CNVDIIS         .... on
   Start iteration      DIISMaxIt       ....    12
   Startup error        DIISStart       ....  0.200000
   # of expansion vecs  DIISMaxEq       ....     5
   Bias factor          DIISBfac        ....   1.050
   Max. coefficient     DIISMaxC        ....  10.000
 Trust-Rad. Augm. Hess. CNVTRAH         .... off
 SOSCF                  CNVSOSCF        .... off
 Level Shifting         CNVShift        .... on
   Level shift para.    LevelShift      ....    0.2500
   Turn off err/grad.   ShiftErr        ....    0.0010
 Zerner damping         CNVZerner       .... off
 Static damping         CNVDamp         .... on
   Fraction old density DampFac         ....    0.7000
   Max. Damping (<1)    DampMax         ....    0.9800
   Min. Damping (>=0)   DampMin         ....    0.0000
   Turn off err/grad.   DampErr         ....    0.1000
 Fernandez-Rico         CNVRico         .... off

SCF Procedure:
 Maximum # iterations   MaxIter         ....   125
 SCF integral mode      SCFMode         .... Direct
   Integral package                     .... SHARK and LIBINT hybrid scheme
 Reset frequency        DirectResetFreq ....    20
 Integral Threshold     Thresh          ....  2.500e-11 Eh
 Primitive CutOff       TCut            ....  2.500e-12 Eh

Convergence Tolerance:
 Convergence Check Mode ConvCheckMode   .... Total+1el-Energy
 Convergence forced     ConvForced      .... 0
 Energy Change          TolE            ....  1.000e-08 Eh
 1-El. energy change                    ....  1.000e-05 Eh
 DIIS Error             TolErr          ....  5.000e-07


Diagonalization of the overlap matrix:
Smallest eigenvalue                        ... 6.410e-06
Time for diagonalization                   ...    0.113 sec
Threshold for overlap eigenvalues          ... 1.000e-08
Number of eigenvalues below threshold      ... 0
Time for construction of square roots      ...    0.299 sec
Total time needed                          ...    0.416 sec

Time for model grid setup =    1.793 sec

------------------------------
INITIAL GUESS: MODEL POTENTIAL
------------------------------
Loading Hartree-Fock densities                     ... done
Calculating cut-offs                               ... done
Initializing the effective Hamiltonian             ... done
Setting up the integral package (SHARK)            ... done
Starting the Coulomb interaction                   ... done (   2.8 sec)
Reading the grid                                   ... done
Mapping shells                                     ... done
Starting the XC term evaluation                    ... done (   0.5 sec)
  promolecular density results
     # of electrons  =    174.001529421
     EX              =   -117.622368577
     EC              =     -7.625477679
     EX+EC           =   -125.247846256
Transforming the Hamiltonian                       ... done (   0.1 sec)
Diagonalizing the Hamiltonian                      ... done (   0.1 sec)
Back transforming the eigenvectors                 ... done (   0.0 sec)
Now organizing SCF variables                       ... done
                      ------------------
                      INITIAL GUESS DONE (   5.4 sec)
                      ------------------
-------------------
DFT GRID GENERATION
-------------------

General Integration Accuracy     IntAcc      ... 4.388
Radial Grid Type                 RadialGrid  ... OptM3 with GC (2021)
Angular Grid (max. ang.)         AngularGrid ... 4 (Lebedev-302)
Angular grid pruning method      GridPruning ... 4 (adaptive)
Weight generation scheme         WeightScheme... Becke
Basis function cutoff            BFCut       ... 1.0000e-11
Integration weight cutoff        WCut        ... 1.0000e-14
Angular grids for H and He will be reduced by one unit
Partially contracted basis set               ... off
Rotationally invariant grid construction     ... off

Total number of grid points                  ...   179155
Total number of batches                      ...     2817
Average number of points per batch           ...       63
Average number of grid points per atom       ...     4977

------------------
NL GRID GENERATION
------------------

General Integration Accuracy     IntAcc      ... 4.004
Radial Grid Type                 RadialGrid  ... OptM3 with GC (2021)
Angular Grid (max. ang.)         AngularGrid ... 2 (Lebedev-110)
Angular grid pruning method      GridPruning ... 4 (adaptive)
Weight generation scheme         WeightScheme... Becke
Basis function cutoff            BFCut       ... 1.0000e-10
Integration weight cutoff        WCut        ... 1.0000e-14
Angular grids for H and He will be reduced by one unit
Partially contracted basis set               ... off
Rotationally invariant grid construction     ... off

Total number of grid points                  ...    57317
Total number of batches                      ...      916
Average number of points per batch           ...       62
Average number of grid points per atom       ...     1592
Time for grid setup =    1.713 sec

--------------------
COSX GRID GENERATION
--------------------

GRIDX 1
-------
General Integration Accuracy     IntAcc      ... 3.816
Radial Grid Type                 RadialGrid  ... OptM3 with GC (2021)
Angular Grid (max. ang.)         AngularGrid ... 1 (Lebedev-50)
Angular grid pruning method      GridPruning ... 4 (adaptive)
Weight generation scheme         WeightScheme... Becke
Basis function cutoff            BFCut       ... 1.0000e-11
Integration weight cutoff        WCut        ... 1.0000e-14
Angular grids for H and He will be reduced by one unit
Partially contracted basis set               ... on
Rotationally invariant grid construction     ... off

Total number of grid points                  ...    22611
Total number of batches                      ...      371
Average number of points per batch           ...       60
Average number of grid points per atom       ...      628
UseSFitting                                  ... on

GRIDX 2
-------
General Integration Accuracy     IntAcc      ... 4.020
Radial Grid Type                 RadialGrid  ... OptM3 with GC (2021)
Angular Grid (max. ang.)         AngularGrid ... 2 (Lebedev-110)
Angular grid pruning method      GridPruning ... 4 (adaptive)
Weight generation scheme         WeightScheme... Becke
Basis function cutoff            BFCut       ... 1.0000e-11
Integration weight cutoff        WCut        ... 1.0000e-14
Angular grids for H and He will be reduced by one unit
Partially contracted basis set               ... on
Rotationally invariant grid construction     ... off

Total number of grid points                  ...    49564
Total number of batches                      ...      788
Average number of points per batch           ...       62
Average number of grid points per atom       ...     1377
UseSFitting                                  ... on

GRIDX 3
-------
General Integration Accuracy     IntAcc      ... 4.338
Radial Grid Type                 RadialGrid  ... OptM3 with GC (2021)
Angular Grid (max. ang.)         AngularGrid ... 3 (Lebedev-194)
Angular grid pruning method      GridPruning ... 4 (adaptive)
Weight generation scheme         WeightScheme... Becke
Basis function cutoff            BFCut       ... 1.0000e-11
Integration weight cutoff        WCut        ... 1.0000e-14
Angular grids for H and He will be reduced by one unit
Partially contracted basis set               ... on
Rotationally invariant grid construction     ... off

Total number of grid points                  ...   109616
Total number of batches                      ...     1732
Average number of points per batch           ...       63
Average number of grid points per atom       ...     3045
UseSFitting                                  ... on

Time for X-Grid setup             =    2.505 sec


--------------------
CPCM SOLVATION MODEL
--------------------
CPCM parameters:
  Epsilon                                         ...      46.8260
  Refrac                                          ...       1.4170
  Rsolv                                           ...       1.3000
  Surface type                                    ... GAUSSIAN VDW
  Epsilon function type                           ...         CPCM
Solvent:                                     ... DMSO
SMD-CDS solvent descriptors:
  Soln                                       ...    1.4170
  Soln25                                     ...    1.4773
  Sola                                       ...    0.0000
  Solb                                       ...    0.8800
  Solg                                       ...   61.7800
  Solc                                       ...    0.0000
  Solh                                       ...    0.0000
Radii:
 Radius for C  used is    3.4960 Bohr (=   1.8500 Ang.)
 Radius for S  used is    4.7054 Bohr (=   2.4900 Ang.)
 Radius for O  used is    4.3350 Bohr (=   2.2940 Ang.)
 Radius for H  used is    2.2677 Bohr (=   1.2000 Ang.)
Calculating surface                               ...        done! (  0.0s)
GEPOL surface points                              ...         1874
GEPOL Volume                                      ...    2715.5404
GEPOL Surface-area                                ...    1360.8946
Calculating surface distance matrix               ...        done! (  0.0s)
Performing Cholesky decomposition & store         ...        done! (  0.4s)
Overall time for CPCM initialization              ...                 0.4s
--------------
SCF ITERATIONS
--------------
ITER       Energy         Delta-E        Max-DP      RMS-DP      [F,P]     Damp
               ***  Starting incremental Fock matrix formation  ***
  0  -1714.9689038719   0.000000000000 0.13543286  0.00067980  0.1787816 0.7000
  1  -1715.1195095742  -0.150605702352 0.12007862  0.00063286  0.1178493 0.7000
                               ***Turning on DIIS***
  2  -1715.1961278169  -0.076618242704 0.30382194  0.00163154  0.0815919 0.0000
  3  -1715.3340312364  -0.137903419478 0.03027396  0.00018272  0.0251598 0.0000
  4  -1715.3512181481  -0.017186911695 0.01295002  0.00007887  0.0084293 0.0000
  5  -1715.3526472668  -0.001429118727 0.00839291  0.00004724  0.0039279 0.0000
  6  -1715.3530268357  -0.000379568879 0.00448468  0.00002625  0.0010410 0.0000
  7  -1715.3531534837  -0.000126648027 0.00308333  0.00001911  0.0006052 0.0000
               *** Restarting incremental Fock matrix formation ***
                                   *** Resetting DIIS ***
  8  -1715.3531902315  -0.000036747737 0.00120929  0.00001356  0.0004298 0.0000
  9  -1715.3531961081  -0.000005876684 0.00025143  0.00000227  0.0005169 0.0000
 10  -1715.3531990722  -0.000002964081 0.00029741  0.00000360  0.0001245 0.0000
 11  -1715.3532002307  -0.000001158467 0.00008417  0.00000108  0.0001310 0.0000
 12  -1715.3532004146  -0.000000183873 0.00005731  0.00000048  0.0000418 0.0000
 13  -1715.3532004275  -0.000000012976 0.00004281  0.00000036  0.0000065 0.0000
 14  -1715.3532004393  -0.000000011800 0.00004918  0.00000046  0.0000038 0.0000
 15  -1715.3532004324   0.000000006948 0.00002791  0.00000031  0.0000021 0.0000
 16  -1715.3532004445  -0.000000012151 0.00002754  0.00000025  0.0000013 0.0000
                 **** Energy Check signals convergence ****

               *****************************************************
               *                     SUCCESS                       *
               *           SCF CONVERGED AFTER  17 CYCLES          *
               *****************************************************

Old exchange energy                            =    -51.372857840 Eh
New exchange energy                            =    -51.372831963 Eh
Exchange energy change after final integration =      0.000025877 Eh
Total energy after final integration           =  -1715.353174575 Eh
Final COS-X integration done in                =    44.906 sec

SMD CDS free energy correction energy :                -4.21891     Kcal/mol
Total Energy after SMD CDS correction =             -1715.359897830 Eh

----------------
TOTAL SCF ENERGY
----------------

Total Energy       :        -1715.35989783 Eh          -46677.31585 eV

Components:
Nuclear Repulsion  :         1970.14224692 Eh           53610.29603 eV
Electronic Energy  :        -3685.50214475 Eh         -100287.61188 eV
One Electron Energy:        -6267.05321495 Eh         -170535.18782 eV
Two Electron Energy:         2581.55107019 Eh           70247.57594 eV
Max COSX asymmetry :            0.00000046 Eh               0.00001 eV
CPCM Dielectric    :           -0.02595687 Eh              -0.70632 eV
SMD CDS (Gcds)     :           -0.00672326 Eh              -0.18295 eV

Virial components:
Potential Energy   :        -3426.16787096 Eh          -93230.76753 eV
Kinetic Energy     :         1710.80797313 Eh           46553.45168 eV
Virial Ratio       :            2.00266069


DFT components:
N(Alpha)           :       86.999992962687 electrons
N(Beta)            :       86.999992962687 electrons
N(Total)           :      173.999985925374 electrons
E(X)               :     -119.238723590170 Eh       
E(C)               :       -7.661013372565 Eh       
NL Energy, E(C,NL) :        0.660759995424 Eh       
E(XC)              :     -126.238976967310 Eh       
DFET-embed. en.    :        0.000000000000 Eh       
CPCM Solvation Model Properties:
Surface-charge          :           -0.03325363
Charge-correction       :            0.00040401 Eh               0.01099 eV
Free-energy (cav+disp)  :           -0.00672326 Eh              -0.18295 eV

---------------
SCF CONVERGENCE
---------------

  Last Energy change         ...   -6.6796e-09  Tolerance :   1.0000e-08
  Last MAX-Density change    ...    0.0000e+00  Tolerance :   1.0000e-07
  Last RMS-Density change    ...    0.0000e+00  Tolerance :   5.0000e-09
  Last DIIS Error            ...    4.9856e-07  Tolerance :   5.0000e-07

             **** THE GBW FILE WAS UPDATED (/burg/berkelbach/users/eav2136/projects/peroxide_dissociation/05_range_separated_functional/wb97x-v-peroxide-dmso/wb97x-v-peroxide-dmso_opt.gbw) ****
             **** DENSITY /burg/berkelbach/users/eav2136/projects/peroxide_dissociation/05_range_separated_functional/wb97x-v-peroxide-dmso/wb97x-v-peroxide-dmso_opt.scfp WAS UPDATED ****
             **** ENERGY FILE WAS UPDATED (/burg/berkelbach/users/eav2136/projects/peroxide_dissociation/05_range_separated_functional/wb97x-v-peroxide-dmso/wb97x-v-peroxide-dmso_opt.en.tmp) ****
----------------------
UHF SPIN CONTAMINATION
----------------------

Warning: in a DFT calculation there is little theoretical justification to 
         calculate <S**2> as in Hartree-Fock theory. We will do it anyways
         but you should keep in mind that the values have only limited relevance

Expectation value of <S**2>     :    -0.000000
Ideal value S*(S+1) for S=0.0   :     0.000000
Deviation                       :    -0.000000

             **** THE GBW FILE WAS UPDATED (/burg/berkelbach/users/eav2136/projects/peroxide_dissociation/05_range_separated_functional/wb97x-v-peroxide-dmso/wb97x-v-peroxide-dmso_opt.gbw) ****
             **** DENSITY /burg/berkelbach/users/eav2136/projects/peroxide_dissociation/05_range_separated_functional/wb97x-v-peroxide-dmso/wb97x-v-peroxide-dmso_opt.scfp WAS UPDATED ****
----------------
ORBITAL ENERGIES
----------------
                 SPIN UP ORBITALS
  NO   OCC          E(Eh)            E(eV) 
   0   1.0000     -88.867708     -2418.2133 
   1   1.0000     -88.866485     -2418.1800 
   2   1.0000     -19.330706      -526.0153 
   3   1.0000     -19.328778      -525.9628 
   4   1.0000     -19.223785      -523.1058 
   5   1.0000     -19.220214      -523.0086 
   6   1.0000     -10.423244      -283.6309 
   7   1.0000     -10.420557      -283.5578 
   8   1.0000     -10.321956      -280.8747 
   9   1.0000     -10.319908      -280.8190 
  10   1.0000     -10.296343      -280.1777 
  11   1.0000     -10.294493      -280.1274 
  12   1.0000     -10.291526      -280.0467 
  13   1.0000     -10.291237      -280.0388 
  14   1.0000     -10.289061      -279.9796 
  15   1.0000     -10.288447      -279.9629 
  16   1.0000     -10.288095      -279.9533 
  17   1.0000     -10.287640      -279.9409 
  18   1.0000     -10.281627      -279.7773 
  19   1.0000     -10.281506      -279.7740 
  20   1.0000     -10.281472      -279.7731 
  21   1.0000     -10.281077      -279.7623 
  22   1.0000      -8.046465      -218.9554 
  23   1.0000      -8.045227      -218.9218 
  24   1.0000      -6.002595      -163.3389 
  25   1.0000      -6.001380      -163.3058 
  26   1.0000      -5.998335      -163.2230 
  27   1.0000      -5.997137      -163.1904 
  28   1.0000      -5.993840      -163.1007 
  29   1.0000      -5.992547      -163.0655 
  30   1.0000      -1.341358       -36.5002 
  31   1.0000      -1.229598       -33.4591 
  32   1.0000      -1.196355       -32.5545 
  33   1.0000      -1.099029       -29.9061 
  34   1.0000      -1.022338       -27.8192 
  35   1.0000      -1.020968       -27.7819 
  36   1.0000      -0.954044       -25.9609 
  37   1.0000      -0.952200       -25.9107 
  38   1.0000      -0.898718       -24.4554 
  39   1.0000      -0.896709       -24.4007 
  40   1.0000      -0.889786       -24.2123 
  41   1.0000      -0.887440       -24.1485 
  42   1.0000      -0.816531       -22.2189 
  43   1.0000      -0.801949       -21.8222 
  44   1.0000      -0.766928       -20.8692 
  45   1.0000      -0.751106       -20.4386 
  46   1.0000      -0.749313       -20.3898 
  47   1.0000      -0.731424       -19.9031 
  48   1.0000      -0.708510       -19.2795 
  49   1.0000      -0.695372       -18.9220 
  50   1.0000      -0.676084       -18.3972 
  51   1.0000      -0.664707       -18.0876 
  52   1.0000      -0.630611       -17.1598 
  53   1.0000      -0.610998       -16.6261 
  54   1.0000      -0.598325       -16.2812 
  55   1.0000      -0.595833       -16.2134 
  56   1.0000      -0.583166       -15.8688 
  57   1.0000      -0.578268       -15.7355 
  58   1.0000      -0.575155       -15.6508 
  59   1.0000      -0.565548       -15.3894 
  60   1.0000      -0.562404       -15.3038 
  61   1.0000      -0.549811       -14.9611 
  62   1.0000      -0.545647       -14.8478 
  63   1.0000      -0.542419       -14.7600 
  64   1.0000      -0.541583       -14.7372 
  65   1.0000      -0.540533       -14.7086 
  66   1.0000      -0.529472       -14.4077 
  67   1.0000      -0.513169       -13.9640 
  68   1.0000      -0.508824       -13.8458 
  69   1.0000      -0.504913       -13.7394 
  70   1.0000      -0.501158       -13.6372 
  71   1.0000      -0.477342       -12.9891 
  72   1.0000      -0.473248       -12.8777 
  73   1.0000      -0.464923       -12.6512 
  74   1.0000      -0.457993       -12.4626 
  75   1.0000      -0.456264       -12.4156 
  76   1.0000      -0.431659       -11.7460 
  77   1.0000      -0.426623       -11.6090 
  78   1.0000      -0.425559       -11.5801 
  79   1.0000      -0.415944       -11.3184 
  80   1.0000      -0.410320       -11.1654 
  81   1.0000      -0.402325       -10.9478 
  82   1.0000      -0.396252       -10.7826 
  83   1.0000      -0.366044        -9.9606 
  84   1.0000      -0.362700        -9.8696 
  85   1.0000      -0.309282        -8.4160 
  86   1.0000      -0.307764        -8.3747 
  87   0.0000       0.012854         0.3498 
  88   0.0000       0.027293         0.7427 
  89   0.0000       0.056999         1.5510 
  90   0.0000       0.059446         1.6176 
  91   0.0000       0.085605         2.3294 
  92   0.0000       0.107150         2.9157 
  93   0.0000       0.112028         3.0484 
  94   0.0000       0.119178         3.2430 
  95   0.0000       0.126053         3.4301 
  96   0.0000       0.130478         3.5505 
  97   0.0000       0.140640         3.8270 
  98   0.0000       0.152381         4.1465 
  99   0.0000       0.154718         4.2101 
 100   0.0000       0.162298         4.4164 
 101   0.0000       0.166163         4.5215 
 102   0.0000       0.168513         4.5855 
 103   0.0000       0.178878         4.8675 
 104   0.0000       0.184978         5.0335 
 105   0.0000       0.190831         5.1928 
 106   0.0000       0.191222         5.2034 
 107   0.0000       0.193041         5.2529 
 108   0.0000       0.197594         5.3768 
 109   0.0000       0.202783         5.5180 
 110   0.0000       0.208589         5.6760 
 111   0.0000       0.213834         5.8187 
 112   0.0000       0.217128         5.9084 
 113   0.0000       0.220237         5.9929 
 114   0.0000       0.227214         6.1828 
 115   0.0000       0.234824         6.3899 
 116   0.0000       0.242094         6.5877 
 117   0.0000       0.245221         6.6728 
 118   0.0000       0.254861         6.9351 
 119   0.0000       0.261633         7.1194 
 120   0.0000       0.269516         7.3339 
 121   0.0000       0.277688         7.5563 
 122   0.0000       0.282627         7.6907 
 123   0.0000       0.287165         7.8141 
 124   0.0000       0.291398         7.9293 
 125   0.0000       0.296336         8.0637 
 126   0.0000       0.300254         8.1703 
 127   0.0000       0.302590         8.2339 
 128   0.0000       0.304700         8.2913 
 129   0.0000       0.309757         8.4289 
 130   0.0000       0.313333         8.5262 
 131   0.0000       0.319946         8.7062 
 132   0.0000       0.324678         8.8349 
 133   0.0000       0.326768         8.8918 
 134   0.0000       0.330305         8.9881 
 135   0.0000       0.333986         9.0882 
 136   0.0000       0.339195         9.2300 
 137   0.0000       0.340336         9.2610 
 138   0.0000       0.342681         9.3248 
 139   0.0000       0.346606         9.4316 
 140   0.0000       0.352761         9.5991 
 141   0.0000       0.365962         9.9583 
 142   0.0000       0.371523        10.1096 
 143   0.0000       0.371881        10.1194 
 144   0.0000       0.377185        10.2637 
 145   0.0000       0.382132        10.3983 
 146   0.0000       0.386872        10.5273 
 147   0.0000       0.398966        10.8564 
 148   0.0000       0.401910        10.9365 
 149   0.0000       0.407875        11.0988 
 150   0.0000       0.410075        11.1587 
 151   0.0000       0.414623        11.2825 
 152   0.0000       0.420176        11.4336 
 153   0.0000       0.423060        11.5121 
 154   0.0000       0.425526        11.5792 
 155   0.0000       0.431338        11.7373 
 156   0.0000       0.434866        11.8333 
 157   0.0000       0.445932        12.1344 
 158   0.0000       0.449196        12.2233 
 159   0.0000       0.452840        12.3224 
 160   0.0000       0.457732        12.4555 
 161   0.0000       0.461856        12.5678 
 162   0.0000       0.466207        12.6861 
 163   0.0000       0.469014        12.7625 
 164   0.0000       0.473217        12.8769 
 165   0.0000       0.478524        13.0213 
 166   0.0000       0.487219        13.2579 
 167   0.0000       0.489438        13.3183 
 168   0.0000       0.490908        13.3583 
 169   0.0000       0.497675        13.5424 
 170   0.0000       0.498864        13.5748 
 171   0.0000       0.500904        13.6303 
 172   0.0000       0.506751        13.7894 
 173   0.0000       0.511134        13.9087 
 174   0.0000       0.516631        14.0583 
 175   0.0000       0.519569        14.1382 
 176   0.0000       0.526160        14.3175 
 177   0.0000       0.529857        14.4181 
 178   0.0000       0.535677        14.5765 
 179   0.0000       0.542487        14.7618 
 180   0.0000       0.546107        14.8603 
 181   0.0000       0.552503        15.0344 
 182   0.0000       0.557500        15.1704 
 183   0.0000       0.564365        15.3572 
 184   0.0000       0.566874        15.4254 
 185   0.0000       0.570171        15.5151 
 186   0.0000       0.575394        15.6573 
 187   0.0000       0.578361        15.7380 
 188   0.0000       0.582658        15.8549 
 189   0.0000       0.587359        15.9828 
 190   0.0000       0.589205        16.0331 
 191   0.0000       0.592347        16.1186 
 192   0.0000       0.597801        16.2670 
 193   0.0000       0.603917        16.4334 
 194   0.0000       0.610790        16.6204 
 195   0.0000       0.616428        16.7739 
 196   0.0000       0.620162        16.8755 
 197   0.0000       0.630494        17.1566 
 198   0.0000       0.635220        17.2852 
 199   0.0000       0.640090        17.4177 
 200   0.0000       0.641979        17.4691 
 201   0.0000       0.645134        17.5550 
 202   0.0000       0.648934        17.6584 
 203   0.0000       0.659977        17.9589 
 204   0.0000       0.669610        18.2210 
 205   0.0000       0.676376        18.4051 
 206   0.0000       0.686647        18.6846 
 207   0.0000       0.690706        18.7951 
 208   0.0000       0.693242        18.8641 
 209   0.0000       0.702528        19.1168 
 210   0.0000       0.715693        19.4750 
 211   0.0000       0.722980        19.6733 
 212   0.0000       0.725793        19.7498 
 213   0.0000       0.732698        19.9377 
 214   0.0000       0.738928        20.1073 
 215   0.0000       0.743718        20.2376 
 216   0.0000       0.752631        20.4801 
 217   0.0000       0.763961        20.7884 
 218   0.0000       0.769349        20.9350 
 219   0.0000       0.772197        21.0126 
 220   0.0000       0.780281        21.2325 
 221   0.0000       0.787736        21.4354 
 222   0.0000       0.791111        21.5272 
 223   0.0000       0.795301        21.6413 
 224   0.0000       0.798132        21.7183 
 225   0.0000       0.807335        21.9687 
 226   0.0000       0.808472        21.9996 
 227   0.0000       0.813968        22.1492 
 228   0.0000       0.821284        22.3483 
 229   0.0000       0.826275        22.4841 
 230   0.0000       0.836078        22.7508 
 231   0.0000       0.840772        22.8786 
 232   0.0000       0.852910        23.2089 
 233   0.0000       0.855996        23.2928 
 234   0.0000       0.863019        23.4840 
 235   0.0000       0.864542        23.5254 
 236   0.0000       0.870627        23.6910 
 237   0.0000       0.873307        23.7639 
 238   0.0000       0.875220        23.8159 
 239   0.0000       0.887416        24.1478 
 240   0.0000       0.895654        24.3720 
 241   0.0000       0.897292        24.4166 
 242   0.0000       0.900963        24.5165 
 243   0.0000       0.910144        24.7663 
 244   0.0000       0.912129        24.8203 
 245   0.0000       0.919778        25.0284 
 246   0.0000       0.927015        25.2254 
 247   0.0000       0.940929        25.6040 
 248   0.0000       0.949702        25.8427 
 249   0.0000       0.952293        25.9132 
 250   0.0000       0.962909        26.2021 
 251   0.0000       0.965225        26.2651 
 252   0.0000       0.969892        26.3921 
 253   0.0000       0.981533        26.7089 
 254   0.0000       0.985941        26.8288 
 255   0.0000       0.992059        26.9953 
 256   0.0000       1.004319        27.3289 
 257   0.0000       1.006060        27.3763 
 258   0.0000       1.013995        27.5922 
 259   0.0000       1.020055        27.7571 
 260   0.0000       1.024384        27.8749 
 261   0.0000       1.037346        28.2276 
 262   0.0000       1.039519        28.2868 
 263   0.0000       1.050316        28.5806 
 264   0.0000       1.059741        28.8370 
 265   0.0000       1.064814        28.9751 
 266   0.0000       1.068515        29.0758 
 267   0.0000       1.075370        29.2623 
 268   0.0000       1.078087        29.3363 
 269   0.0000       1.096964        29.8499 
 270   0.0000       1.098743        29.8983 
 271   0.0000       1.105748        30.0889 
 272   0.0000       1.111922        30.2569 
 273   0.0000       1.122257        30.5382 
 274   0.0000       1.134705        30.8769 
 275   0.0000       1.140488        31.0343 
 276   0.0000       1.145633        31.1743 
 277   0.0000       1.154476        31.4149 
 278   0.0000       1.170952        31.8632 
 279   0.0000       1.172032        31.8926 
 280   0.0000       1.181692        32.1555 
 281   0.0000       1.186558        32.2879 
 282   0.0000       1.194998        32.5176 
 283   0.0000       1.204465        32.7752 
 284   0.0000       1.224650        33.3244 
 285   0.0000       1.227703        33.4075 
 286   0.0000       1.246827        33.9279 
 287   0.0000       1.258660        34.2499 
 288   0.0000       1.269863        34.5547 
 289   0.0000       1.275975        34.7211 
 290   0.0000       1.291524        35.1442 
 291   0.0000       1.305693        35.5297 
 292   0.0000       1.314916        35.7807 
 293   0.0000       1.320202        35.9245 
 294   0.0000       1.325491        36.0684 
 295   0.0000       1.333571        36.2883 
 296   0.0000       1.336786        36.3758 
 297   0.0000       1.341710        36.5098 
 298   0.0000       1.350167        36.7399 
 299   0.0000       1.361902        37.0592 
 300   0.0000       1.376654        37.4607 
 301   0.0000       1.380091        37.5542 
 302   0.0000       1.391436        37.8629 
 303   0.0000       1.396620        38.0040 
 304   0.0000       1.400554        38.1110 
 305   0.0000       1.402768        38.1713 
 306   0.0000       1.417234        38.5649 
 307   0.0000       1.432048        38.9680 
 308   0.0000       1.434369        39.0312 
 309   0.0000       1.445057        39.3220 
 310   0.0000       1.460099        39.7313 
 311   0.0000       1.472270        40.0625 
 312   0.0000       1.487548        40.4783 
 313   0.0000       1.496548        40.7231 
 314   0.0000       1.511490        41.1297 
 315   0.0000       1.525720        41.5170 
 316   0.0000       1.544330        42.0234 
 317   0.0000       1.549482        42.1636 
 318   0.0000       1.555649        42.3314 
 319   0.0000       1.558710        42.4147 
 320   0.0000       1.567400        42.6511 
 321   0.0000       1.574640        42.8481 
 322   0.0000       1.585147        43.1341 
 323   0.0000       1.591341        43.3026 
 324   0.0000       1.597509        43.4704 
 325   0.0000       1.607193        43.7339 
 326   0.0000       1.610950        43.8362 
 327   0.0000       1.614959        43.9453 
 328   0.0000       1.619093        44.0578 
 329   0.0000       1.619842        44.0781 
 330   0.0000       1.624957        44.2173 
 331   0.0000       1.633035        44.4371 
 332   0.0000       1.637081        44.5473 
 333   0.0000       1.640265        44.6339 
 334   0.0000       1.641428        44.6655 
 335   0.0000       1.647911        44.8419 
 336   0.0000       1.654692        45.0265 
 337   0.0000       1.661035        45.1991 
 338   0.0000       1.663469        45.2653 
 339   0.0000       1.664870        45.3034 
 340   0.0000       1.670029        45.4438 
 341   0.0000       1.677004        45.6336 
 342   0.0000       1.681520        45.7565 
 343   0.0000       1.690304        45.9955 
 344   0.0000       1.693816        46.0911 
 345   0.0000       1.699731        46.2520 
 346   0.0000       1.707974        46.4763 
 347   0.0000       1.708578        46.4928 
 348   0.0000       1.715281        46.6752 
 349   0.0000       1.723095        46.8878 
 350   0.0000       1.728885        47.0453 
 351   0.0000       1.732264        47.1373 
 352   0.0000       1.735518        47.2258 
 353   0.0000       1.747139        47.5421 
 354   0.0000       1.759183        47.8698 
 355   0.0000       1.766791        48.0768 
 356   0.0000       1.772929        48.2439 
 357   0.0000       1.779291        48.4170 
 358   0.0000       1.787720        48.6463 
 359   0.0000       1.793926        48.8152 
 360   0.0000       1.798223        48.9321 
 361   0.0000       1.801949        49.0335 
 362   0.0000       1.805421        49.1280 
 363   0.0000       1.810608        49.2691 
 364   0.0000       1.824235        49.6400 
 365   0.0000       1.828806        49.7643 
 366   0.0000       1.833188        49.8836 
 367   0.0000       1.843334        50.1597 
 368   0.0000       1.854325        50.4587 
 369   0.0000       1.858139        50.5625 
 370   0.0000       1.885232        51.2998 
 371   0.0000       1.890300        51.4377 
 372   0.0000       1.903064        51.7850 
 373   0.0000       1.919106        52.2215 
 374   0.0000       1.919249        52.2254 
 375   0.0000       1.926564        52.4245 
 376   0.0000       1.931197        52.5505 
 377   0.0000       1.934787        52.6482 
 378   0.0000       1.938628        52.7527 
 379   0.0000       1.947962        53.0067 
 380   0.0000       1.952478        53.1296 
 381   0.0000       1.954334        53.1801 
 382   0.0000       1.960738        53.3544 
 383   0.0000       1.964144        53.4471 
 384   0.0000       1.971356        53.6433 
 385   0.0000       1.973736        53.7081 
 386   0.0000       1.981127        53.9092 
 387   0.0000       1.984672        54.0057 
 388   0.0000       1.988957        54.1223 
 389   0.0000       1.993782        54.2536 
 390   0.0000       2.006868        54.6097 
 391   0.0000       2.007973        54.6397 
 392   0.0000       2.028215        55.1905 
 393   0.0000       2.038730        55.4767 
 394   0.0000       2.051935        55.8360 
 395   0.0000       2.069359        56.3101 
 396   0.0000       2.073802        56.4310 
 397   0.0000       2.080708        56.6189 
 398   0.0000       2.084602        56.7249 
[...]
      px      :     0.000000
      py      :     0.000000
      dz2     :     0.000000  d :     0.000000
      dxz     :     0.000000
      dyz     :     0.000000
      dx2y2   :     0.000000
      dxy     :     0.000000
      f0      :     0.000000  f :     0.000000
      f+1     :     0.000000
      f-1     :     0.000000
      f+2     :     0.000000
      f-2     :     0.000000
      f+3     :     0.000000
      f-3     :     0.000000
  5 C s       :     0.000000  s :     0.000000
      pz      :     0.000000  p :     0.000000
      px      :     0.000000
      py      :     0.000000
      dz2     :     0.000000  d :     0.000000
      dxz     :     0.000000
      dyz     :     0.000000
      dx2y2   :     0.000000
      dxy     :     0.000000
      f0      :     0.000000  f :     0.000000
      f+1     :     0.000000
      f-1     :     0.000000
      f+2     :     0.000000
      f-2     :     0.000000
      f+3     :     0.000000
      f-3     :     0.000000
  6 C s       :     0.000000  s :     0.000000
      pz      :     0.000000  p :     0.000000
      px      :     0.000000
      py      :     0.000000
      dz2     :     0.000000  d :     0.000000
      dxz     :     0.000000
      dyz     :     0.000000
      dx2y2   :     0.000000
      dxy     :     0.000000
      f0      :     0.000000  f :     0.000000
      f+1     :     0.000000
      f-1     :     0.000000
      f+2     :     0.000000
      f-2     :     0.000000
      f+3     :     0.000000
      f-3     :     0.000000
  7 C s       :     0.000000  s :     0.000000
      pz      :     0.000000  p :     0.000000
      px      :     0.000000
      py      :     0.000000
      dz2     :     0.000000  d :     0.000000
      dxz     :     0.000000
      dyz     :     0.000000
      dx2y2   :     0.000000
      dxy     :     0.000000
      f0      :     0.000000  f :     0.000000
      f+1     :     0.000000
      f-1     :     0.000000
      f+2     :     0.000000
      f-2     :     0.000000
      f+3     :     0.000000
      f-3     :     0.000000
  8 C s       :     0.000000  s :     0.000000
      pz      :     0.000000  p :     0.000000
      px      :     0.000000
      py      :     0.000000
      dz2     :     0.000000  d :     0.000000
      dxz     :     0.000000
      dyz     :     0.000000
      dx2y2   :     0.000000
      dxy     :     0.000000
      f0      :     0.000000  f :     0.000000
      f+1     :     0.000000
      f-1     :     0.000000
      f+2     :     0.000000
      f-2     :     0.000000
      f+3     :     0.000000
      f-3     :     0.000000
  9 O s       :     0.000000  s :     0.000000
      pz      :     0.000000  p :     0.000000
      px      :     0.000000
      py      :     0.000000
      dz2     :     0.000000  d :     0.000000
      dxz     :     0.000000
      dyz     :     0.000000
      dx2y2   :     0.000000
      dxy     :     0.000000
      f0      :     0.000000  f :     0.000000
      f+1     :     0.000000
      f-1     :     0.000000
      f+2     :     0.000000
      f-2     :     0.000000
      f+3     :     0.000000
      f-3     :     0.000000
 10 O s       :     0.000000  s :     0.000000
      pz      :     0.000000  p :     0.000000
      px      :     0.000000
      py      :     0.000000
      dz2     :     0.000000  d :     0.000000
      dxz     :     0.000000
      dyz     :     0.000000
      dx2y2   :     0.000000
      dxy     :     0.000000
      f0      :     0.000000  f :     0.000000
      f+1     :     0.000000
      f-1     :     0.000000
      f+2     :     0.000000
      f-2     :     0.000000
      f+3     :     0.000000
      f-3     :     0.000000
 11 O s       :     0.000000  s :     0.000000
      pz      :     0.000000  p :     0.000000
      px      :     0.000000
      py      :     0.000000
      dz2     :     0.000000  d :     0.000000
      dxz     :     0.000000
      dyz     :     0.000000
      dx2y2   :     0.000000
      dxy     :     0.000000
      f0      :     0.000000  f :     0.000000
      f+1     :     0.000000
      f-1     :     0.000000
      f+2     :     0.000000
      f-2     :     0.000000
      f+3     :     0.000000
      f-3     :     0.000000
 12 C s       :     0.000000  s :     0.000000
      pz      :     0.000000  p :     0.000000
      px      :     0.000000
      py      :     0.000000
      dz2     :     0.000000  d :     0.000000
      dxz     :     0.000000
      dyz     :     0.000000
      dx2y2   :     0.000000
      dxy     :     0.000000
      f0      :     0.000000  f :     0.000000
      f+1     :     0.000000
      f-1     :     0.000000
      f+2     :     0.000000
      f-2     :     0.000000
      f+3     :     0.000000
      f-3     :     0.000000
 13 C s       :     0.000000  s :     0.000000
      pz      :     0.000000  p :     0.000000
      px      :     0.000000
      py      :     0.000000
      dz2     :     0.000000  d :     0.000000
      dxz     :     0.000000
      dyz     :     0.000000
      dx2y2   :     0.000000
      dxy     :     0.000000
      f0      :     0.000000  f :     0.000000
      f+1     :     0.000000
      f-1     :     0.000000
      f+2     :     0.000000
      f-2     :     0.000000
      f+3     :     0.000000
      f-3     :     0.000000
 14 O s       :     0.000000  s :     0.000000
      pz      :     0.000000  p :     0.000000
      px      :     0.000000
      py      :     0.000000
      dz2     :     0.000000  d :     0.000000
      dxz     :     0.000000
      dyz     :     0.000000
      dx2y2   :     0.000000
      dxy     :     0.000000
      f0      :     0.000000  f :     0.000000
      f+1     :     0.000000
      f-1     :     0.000000
      f+2     :     0.000000
      f-2     :     0.000000
      f+3     :     0.000000
      f-3     :     0.000000
 15 C s       :     0.000000  s :     0.000000
      pz      :     0.000000  p :     0.000000
      px      :     0.000000
      py      :     0.000000
      dz2     :     0.000000  d :     0.000000
      dxz     :     0.000000
      dyz     :     0.000000
      dx2y2   :     0.000000
      dxy     :     0.000000
      f0      :     0.000000  f :     0.000000
      f+1     :     0.000000
      f-1     :     0.000000
      f+2     :     0.000000
      f-2     :     0.000000
      f+3     :     0.000000
      f-3     :     0.000000
 16 C s       :     0.000000  s :     0.000000
      pz      :     0.000000  p :     0.000000
      px      :     0.000000
      py      :     0.000000
      dz2     :     0.000000  d :     0.000000
      dxz     :     0.000000
      dyz     :     0.000000
      dx2y2   :     0.000000
      dxy     :     0.000000
      f0      :     0.000000  f :     0.000000
      f+1     :     0.000000
      f-1     :     0.000000
      f+2     :     0.000000
      f-2     :     0.000000
      f+3     :     0.000000
      f-3     :     0.000000
 17 C s       :     0.000000  s :     0.000000
      pz      :     0.000000  p :     0.000000
      px      :     0.000000
      py      :     0.000000
      dz2     :     0.000000  d :     0.000000
      dxz     :     0.000000
      dyz     :     0.000000
      dx2y2   :     0.000000
      dxy     :     0.000000
      f0      :     0.000000  f :     0.000000
      f+1     :     0.000000
      f-1     :     0.000000
      f+2     :     0.000000
      f-2     :     0.000000
      f+3     :     0.000000
      f-3     :     0.000000
 18 C s       :     0.000000  s :     0.000000
      pz      :     0.000000  p :     0.000000
      px      :     0.000000
      py      :     0.000000
      dz2     :     0.000000  d :     0.000000
      dxz     :     0.000000
      dyz     :     0.000000
      dx2y2   :     0.000000
      dxy     :     0.000000
      f0      :     0.000000  f :     0.000000
      f+1     :     0.000000
      f-1     :     0.000000
      f+2     :     0.000000
      f-2     :     0.000000
      f+3     :     0.000000
      f-3     :     0.000000
 19 C s       :     0.000000  s :     0.000000
      pz      :     0.000000  p :     0.000000
      px      :     0.000000
      py      :     0.000000
      dz2     :     0.000000  d :     0.000000
      dxz     :     0.000000
      dyz     :     0.000000
      dx2y2   :     0.000000
      dxy     :     0.000000
      f0      :     0.000000  f :     0.000000
      f+1     :     0.000000
      f-1     :     0.000000
      f+2     :     0.000000
      f-2     :     0.000000
      f+3     :     0.000000
      f-3     :     0.000000
 20 S s       :     0.000000  s :     0.000000
      pz      :     0.000000  p :     0.000000
      px      :     0.000000
      py      :     0.000000
      dz2     :     0.000000  d :     0.000000
      dxz     :     0.000000
      dyz     :     0.000000
      dx2y2   :     0.000000
      dxy     :     0.000000
      f0      :     0.000000  f :     0.000000
      f+1     :     0.000000
      f-1     :     0.000000
      f+2     :     0.000000
      f-2     :     0.000000
      f+3     :     0.000000
      f-3     :     0.000000
 21 C s       :     0.000000  s :     0.000000
      pz      :     0.000000  p :     0.000000
      px      :     0.000000
      py      :     0.000000
      dz2     :     0.000000  d :     0.000000
      dxz     :     0.000000
      dyz     :     0.000000
      dx2y2   :     0.000000
      dxy     :     0.000000
      f0      :     0.000000  f :     0.000000
      f+1     :     0.000000
      f-1     :     0.000000
      f+2     :     0.000000
      f-2     :     0.000000
      f+3     :     0.000000
      f-3     :     0.000000
 22 H s       :     0.000000  s :     0.000000
      pz      :     0.000000  p :     0.000000
      px      :     0.000000
      py      :     0.000000
 23 H s       :     0.000000  s :     0.000000
      pz      :     0.000000  p :     0.000000
      px      :     0.000000
      py      :     0.000000
 24 H s       :     0.000000  s :     0.000000
      pz      :     0.000000  p :     0.000000
      px      :     0.000000
      py      :     0.000000
 25 H s       :     0.000000  s :     0.000000
      pz      :     0.000000  p :     0.000000
      px      :     0.000000
      py      :     0.000000
 26 H s       :     0.000000  s :     0.000000
      pz      :     0.000000  p :     0.000000
      px      :     0.000000
      py      :     0.000000
 27 H s       :     0.000000  s :     0.000000
      pz      :     0.000000  p :     0.000000
      px      :     0.000000
      py      :     0.000000
 28 H s       :     0.000000  s :     0.000000
      pz      :     0.000000  p :     0.000000
      px      :     0.000000
      py      :     0.000000
 29 H s       :     0.000000  s :     0.000000
      pz      :     0.000000  p :     0.000000
      px      :     0.000000
      py      :     0.000000
 30 H s       :     0.000000  s :     0.000000
      pz      :     0.000000  p :     0.000000
      px      :     0.000000
      py      :     0.000000
 31 H s       :     0.000000  s :     0.000000
      pz      :     0.000000  p :     0.000000
      px      :     0.000000
      py      :     0.000000
 32 H s       :     0.000000  s :     0.000000
      pz      :     0.000000  p :     0.000000
      px      :     0.000000
      py      :     0.000000
 33 H s       :     0.000000  s :     0.000000
      pz      :     0.000000  p :     0.000000
      px      :     0.000000
      py      :     0.000000
 34 H s       :     0.000000  s :     0.000000
      pz      :     0.000000  p :     0.000000
      px      :     0.000000
      py      :     0.000000
 35 H s       :     0.000000  s :     0.000000
      pz      :     0.000000  p :     0.000000
      px      :     0.000000
      py      :     0.000000


                      *****************************
                      * MAYER POPULATION ANALYSIS *
                      *****************************

  NA   - Mulliken gross atomic population
  ZA   - Total nuclear charge
  QA   - Mulliken gross atomic charge
  VA   - Mayer's total valence
  BVA  - Mayer's bonded valence
  FA   - Mayer's free valence

  ATOM       NA         ZA         QA         VA         BVA        FA
  0 C      6.4112     6.0000    -0.4112     3.9371     3.9371     0.0000
  1 S     16.0406    16.0000    -0.0406     2.3933     2.3933    -0.0000
  2 C      5.8815     6.0000     0.1185     3.8694     3.8694    -0.0000
  3 C      6.2342     6.0000    -0.2342     3.8575     3.8575    -0.0000
  4 C      6.2255     6.0000    -0.2255     3.9448     3.9448     0.0000
  5 C      5.8879     6.0000     0.1121     3.5442     3.5442    -0.0000
  6 C      6.2478     6.0000    -0.2478     4.0215     4.0215    -0.0000
  7 C      6.1904     6.0000    -0.1904     3.8526     3.8526     0.0000
  8 C      5.7338     6.0000     0.2662     4.3570     4.3570    -0.0000
  9 O      8.0783     8.0000    -0.0783     2.0108     2.0108    -0.0000
 10 O      8.2871     8.0000    -0.2871     2.2457     2.2457    -0.0000
 11 O      8.1095     8.0000    -0.1095     2.0303     2.0303    -0.0000
 12 C      5.7311     6.0000     0.2689     4.3599     4.3599     0.0000
 13 C      5.8815     6.0000     0.1185     3.4648     3.4648     0.0000
 14 O      8.2947     8.0000    -0.2947     2.2285     2.2285    -0.0000
 15 C      6.2392     6.0000    -0.2392     3.9989     3.9989    -0.0000
 16 C      6.1854     6.0000    -0.1854     3.8554     3.8554    -0.0000
 17 C      5.8672     6.0000     0.1328     3.8722     3.8722     0.0000
 18 C      6.2451     6.0000    -0.2451     3.8857     3.8857    -0.0000
 19 C      6.2383     6.0000    -0.2383     3.9834     3.9834     0.0000
 20 S     16.0326    16.0000    -0.0326     2.4113     2.4113    -0.0000
 21 C      6.4115     6.0000    -0.4115     3.9364     3.9364     0.0000
 22 H      0.8167     1.0000     0.1833     0.9594     0.9594     0.0000
 23 H      0.8335     1.0000     0.1665     0.9592     0.9592     0.0000
 24 H      0.8333     1.0000     0.1667     0.9569     0.9569     0.0000
 25 H      0.8176     1.0000     0.1824     0.9607     0.9607    -0.0000
 26 H      0.8206     1.0000     0.1794     0.9789     0.9789     0.0000
 27 H      0.8212     1.0000     0.1788     0.9633     0.9633     0.0000
 28 H      0.8301     1.0000     0.1699     0.9685     0.9685     0.0000
 29 H      0.8260     1.0000     0.1740     0.9763     0.9763    -0.0000
 30 H      0.8305     1.0000     0.1695     0.9698     0.9698    -0.0000
 31 H      0.8185     1.0000     0.1815     0.9618     0.9618    -0.0000
 32 H      0.8171     1.0000     0.1829     0.9664     0.9664    -0.0000
 33 H      0.8156     1.0000     0.1844     0.9591     0.9591     0.0000
 34 H      0.8325     1.0000     0.1675     0.9583     0.9583    -0.0000
 35 H      0.8324     1.0000     0.1676     0.9576     0.9576     0.0000

  Mayer bond orders larger than 0.100000
B(  0-C ,  1-S ) :   1.0635 B(  0-C , 22-H ) :   0.9470 B(  0-C , 23-H ) :   0.9573 
B(  0-C , 24-H ) :   0.9562 B(  1-S ,  2-C ) :   1.2004 B(  2-C ,  3-C ) :   1.2975 
B(  2-C ,  7-C ) :   1.2957 B(  3-C ,  4-C ) :   1.4509 B(  3-C , 25-H ) :   0.9670 
B(  4-C ,  5-C ) :   1.3232 B(  4-C , 26-H ) :   0.9393 B(  5-C ,  6-C ) :   1.3401 
B(  5-C ,  8-C ) :   0.9313 B(  6-C ,  7-C ) :   1.4820 B(  6-C , 27-H ) :   0.9746 
B(  7-C , 28-H ) :   0.9730 B(  8-C ,  9-O ) :   1.1211 B(  8-C , 10-O ) :   2.2016 
B(  9-O , 11-O ) :   0.8286 B( 11-O , 12-C ) :   1.1150 B( 12-C , 13-C ) :   0.9579 
B( 12-C , 14-O ) :   2.1443 B( 13-C , 15-C ) :   1.3043 B( 13-C , 19-C ) :   1.3302 
B( 15-C , 16-C ) :   1.5031 B( 15-C , 29-H ) :   0.9707 B( 16-C , 17-C ) :   1.2756 
B( 16-C , 30-H ) :   0.9752 B( 17-C , 18-C ) :   1.3051 B( 17-C , 20-S ) :   1.2140 
B( 18-C , 19-C ) :   1.4624 B( 18-C , 31-H ) :   0.9630 B( 19-C , 32-H ) :   0.9585 
B( 20-S , 21-C ) :   1.0627 B( 21-C , 33-H ) :   0.9463 B( 21-C , 34-H ) :   0.9569 
B( 21-C , 35-H ) :   0.9565 

-------
TIMINGS
-------

Total SCF time: 0 days 0 hours 5 min 23 sec 

Total time                  ....     323.836 sec
Sum of individual times     ....     318.017 sec  ( 98.2%)

Fock matrix formation       ....     306.408 sec  ( 94.6%)
  Split-RI-J                ....      11.622 sec  (  3.8% of F)
  Chain of spheres X        ....     207.183 sec  ( 67.6% of F)
  XC integration            ....      72.793 sec  ( 23.8% of F)
    Basis function eval.    ....       5.128 sec  (  7.0% of XC)
    Density eval.           ....      10.697 sec  ( 14.7% of XC)
    XC-Functional eval.     ....      48.664 sec  ( 66.9% of XC)
    XC-Potential eval.      ....       4.596 sec  (  6.3% of XC)
Diagonalization             ....       3.417 sec  (  1.1%)
Density matrix formation    ....       0.168 sec  (  0.1%)
Population analysis         ....       0.617 sec  (  0.2%)
Initial guess               ....       0.490 sec  (  0.2%)
Orbital Transformation      ....       0.000 sec  (  0.0%)
Orbital Orthonormalization  ....       0.430 sec  (  0.1%)
DIIS solution               ....       3.601 sec  (  1.1%)
Grid generation             ....       3.317 sec  (  1.0%)

Maximum memory used throughout the entire SCF-calculation: 186.3 MB

-------------------------   --------------------
FINAL SINGLE POINT ENERGY     -1715.361115555055
-------------------------   --------------------

                                *** OPTIMIZATION RUN DONE ***

                            ***************************************
                            *     ORCA property calculations      *
                            ***************************************

                                    ---------------------
                                    Active property flags
                                    ---------------------
   (+) Dipole Moment


------------------------------------------------------------------------------
                       ORCA ELECTRIC PROPERTIES CALCULATION
------------------------------------------------------------------------------

Dipole Moment Calculation                       ... on
Quadrupole Moment Calculation                   ... off
Polarizability Calculation                      ... off
GBWName                                         ... /burg/berkelbach/users/eav2136/projects/peroxide_dissociation/05_range_separated_functional/wb97x-v-peroxide-dmso/wb97x-v-peroxide-dmso_opt.gbw
Electron density                                ... /burg/berkelbach/users/eav2136/projects/peroxide_dissociation/05_range_separated_functional/wb97x-v-peroxide-dmso/wb97x-v-peroxide-dmso_opt.scfp
The origin for moment calculation is the CENTER OF MASS  = (-0.245410,  3.447091  5.648736)

-------------
DIPOLE MOMENT
-------------
                                X             Y             Z
Electronic contribution:     -0.84608      -9.04819     -13.94863
Nuclear contribution   :      1.38798      10.62717      17.44262
                        -----------------------------------------
Total Dipole Moment    :      0.54190       1.57898       3.49399
                        -----------------------------------------
Magnitude (a.u.)       :      3.87232
Magnitude (Debye)      :      9.84264



--------------------
Rotational spectrum 
--------------------
 
Rotational constants in cm-1:     0.008958     0.005614     0.003799 
Rotational constants in MHz :   268.561500   168.296519   113.880680 

 Dipole components along the rotational axes: 
x,y,z [a.u.] :     2.504187     2.937633    -0.306899 
x,y,z [Debye]:     6.365137     7.466868    -0.780076 

 

Timings for individual modules:

Sum of individual times         ...     7635.502 sec (= 127.258 min)
GTO integral calculation        ...      108.919 sec (=   1.815 min)   1.4 %
SCF iterations                  ...     6004.092 sec (= 100.068 min)  78.6 %
SCF Gradient evaluation         ...     1458.895 sec (=  24.315 min)  19.1 %
Geometry relaxation             ...       63.596 sec (=   1.060 min)   0.8 %
                             ****ORCA TERMINATED NORMALLY****
TOTAL RUN TIME: 0 days 2 hours 8 minutes 51 seconds 970 msec
