Job execution start: Fri Apr 22 11:50:20 EDT 2022
Shared library path: /cm/shared/apps/cuda11.0/toolkit/11.0.3/compat:/burg/berkelbach/users/eav2136/builds/orca/5.0.3/orca:/cm/shared/apps/ucx/1.8.1/lib64:/cm/local/apps/cuda/libs/current/lib64:/cm/shared/apps/cuda11.0/toolkit/11.0.3/targets/x86_64-linux/lib:/cm/shared/apps/cuda11.0/visual-tools/11.0.3/libnvvp:/burg/opt/openmpi-4.1.1_ucx_cuda_11.0.3_support/lib:/cm/shared/apps/slurm/current/lib64/slurm:/cm/shared/apps/slurm/current/lib64
Slurm Job ID is: 1845700
Slurm Job name is: wb97x-v-radical_opt
g121

                                 *****************
                                 * O   R   C   A *
                                 *****************

                                            #,                                       
                                            ###                                      
                                            ####                                     
                                            #####                                    
                                            ######                                   
                                           ########,                                 
                                     ,,################,,,,,                         
                               ,,#################################,,                 
                          ,,##########################################,,             
                       ,#########################################, ''#####,          
                    ,#############################################,,   '####,        
                  ,##################################################,,,,####,       
                ,###########''''           ''''###############################       
              ,#####''   ,,,,##########,,,,          '''####'''          '####       
            ,##' ,,,,###########################,,,                        '##       
           ' ,,###''''                  '''############,,,                           
         ,,##''                                '''############,,,,        ,,,,,,###''
      ,#''                                            '''#######################'''  
     '                                                          ''''####''''         
             ,#######,   #######,   ,#######,      ##                                
            ,#'     '#,  ##    ##  ,#'     '#,    #''#        ######   ,####,        
            ##       ##  ##   ,#'  ##            #'  '#       #        #'  '#        
            ##       ##  #######   ##           ,######,      #####,   #    #        
            '#,     ,#'  ##    ##  '#,     ,#' ,#      #,         ##   #,  ,#        
             '#######'   ##     ##  '#######'  #'      '#     #####' # '####'        



                  #######################################################
                  #                        -***-                        #
                  #          Department of theory and spectroscopy      #
                  #    Directorship and core code : Frank Neese         #
                  #        Max Planck Institute fuer Kohlenforschung    #
                  #                Kaiser Wilhelm Platz 1               #
                  #                 D-45470 Muelheim/Ruhr               #
                  #                      Germany                        #
                  #                                                     #
                  #                  All rights reserved                #
                  #                        -***-                        #
                  #######################################################


                         Program Version 5.0.3 -  RELEASE  -


 With contributions from (in alphabetic order):
   Daniel Aravena         : Magnetic Suceptibility
   Michael Atanasov       : Ab Initio Ligand Field Theory (pilot matlab implementation)
   Alexander A. Auer      : GIAO ZORA, VPT2 properties, NMR spectrum
   Ute Becker             : Parallelization
   Giovanni Bistoni       : ED, misc. LED, open-shell LED, HFLD
   Martin Brehm           : Molecular dynamics
   Dmytro Bykov           : SCF Hessian
   Vijay G. Chilkuri      : MRCI spin determinant printing, contributions to CSF-ICE
   Dipayan Datta          : RHF DLPNO-CCSD density
   Achintya Kumar Dutta   : EOM-CC, STEOM-CC
   Dmitry Ganyushin       : Spin-Orbit,Spin-Spin,Magnetic field MRCI
   Miquel Garcia          : C-PCM and meta-GGA Hessian, CC/C-PCM, Gaussian charge scheme
   Yang Guo               : DLPNO-NEVPT2, F12-NEVPT2, CIM, IAO-localization
   Andreas Hansen         : Spin unrestricted coupled pair/coupled cluster methods
   Benjamin Helmich-Paris : MC-RPA, TRAH-SCF, COSX integrals
   Lee Huntington         : MR-EOM, pCC
   Robert Izsak           : Overlap fitted RIJCOSX, COSX-SCS-MP3, EOM
   Marcus Kettner         : VPT2
   Christian Kollmar      : KDIIS, OOCD, Brueckner-CCSD(T), CCSD density, CASPT2, CASPT2-K
   Simone Kossmann        : Meta GGA functionals, TD-DFT gradient, OOMP2, MP2 Hessian
   Martin Krupicka        : Initial AUTO-CI
   Lucas Lang             : DCDCAS
   Marvin Lechner         : AUTO-CI (C++ implementation), FIC-MRCC
   Dagmar Lenk            : GEPOL surface, SMD
   Dimitrios Liakos       : Extrapolation schemes; Compound Job, initial MDCI parallelization
   Dimitrios Manganas     : Further ROCIS development; embedding schemes
   Dimitrios Pantazis     : SARC Basis sets
   Anastasios Papadopoulos: AUTO-CI, single reference methods and gradients
   Taras Petrenko         : DFT Hessian,TD-DFT gradient, ASA, ECA, R-Raman, ABS, FL, XAS/XES, NRVS
   Peter Pinski           : DLPNO-MP2, DLPNO-MP2 Gradient
   Christoph Reimann      : Effective Core Potentials
   Marius Retegan         : Local ZFS, SOC
   Christoph Riplinger    : Optimizer, TS searches, QM/MM, DLPNO-CCSD(T), (RO)-DLPNO pert. Triples
   Tobias Risthaus        : Range-separated hybrids, TD-DFT gradient, RPA, STAB
   Michael Roemelt        : Original ROCIS implementation
   Masaaki Saitow         : Open-shell DLPNO-CCSD energy and density
   Barbara Sandhoefer     : DKH picture change effects
   Avijit Sen             : IP-ROCIS
   Kantharuban Sivalingam : CASSCF convergence, NEVPT2, FIC-MRCI
   Bernardo de Souza      : ESD, SOC TD-DFT
   Georgi Stoychev        : AutoAux, RI-MP2 NMR, DLPNO-MP2 response
   Willem Van den Heuvel  : Paramagnetic NMR
   Boris Wezisla          : Elementary symmetry handling
   Frank Wennmohs         : Technical directorship


 We gratefully acknowledge several colleagues who have allowed us to
 interface, adapt or use parts of their codes:
   Stefan Grimme, W. Hujo, H. Kruse, P. Pracht,  : VdW corrections, initial TS optimization,
                  C. Bannwarth, S. Ehlert          DFT functionals, gCP, sTDA/sTD-DF
   Ed Valeev, F. Pavosevic, A. Kumar             : LibInt (2-el integral package), F12 methods
   Garnet Chan, S. Sharma, J. Yang, R. Olivares  : DMRG
   Ulf Ekstrom                                   : XCFun DFT Library
   Mihaly Kallay                                 : mrcc  (arbitrary order and MRCC methods)
   Jiri Pittner, Ondrej Demel                    : Mk-CCSD
   Frank Weinhold                                : gennbo (NPA and NBO analysis)
   Christopher J. Cramer and Donald G. Truhlar   : smd solvation model
   Lars Goerigk                                  : TD-DFT with DH, B97 family of functionals
   V. Asgeirsson, H. Jonsson                     : NEB implementation
   FAccTs GmbH                                   : IRC, NEB, NEB-TS, DLPNO-Multilevel, CI-OPT
                                                   MM, QMMM, 2- and 3-layer-ONIOM, Crystal-QMMM,
                                                   LR-CPCM, SF, NACMEs, symmetry and pop. for TD-DFT,
                                                   nearIR, NL-DFT gradient (VV10), updates on ESD,
                                                   ML-optimized integration grids
   S Lehtola, MJT Oliveira, MAL Marques          : LibXC Library
   Liviu Ungur et al                             : ANISO software


 Your calculation uses the libint2 library for the computation of 2-el integrals
 For citations please refer to: http://libint.valeyev.net

 Your ORCA version has been built with support for libXC version: 5.1.0
 For citations please refer to: https://tddft.org/programs/libxc/

 This ORCA versions uses:
   CBLAS   interface :  Fast vector & matrix operations
   LAPACKE interface :  Fast linear algebra routines
   SCALAPACK package :  Parallel linear algebra routines
   Shared memory     :  Shared parallel matrices
   BLAS/LAPACK       :  OpenBLAS 0.3.15  USE64BITINT DYNAMIC_ARCH NO_AFFINITY SkylakeX SINGLE_THREADED
        Core in use  :  SkylakeX
   Copyright (c) 2011-2014, The OpenBLAS Project


Your calculation utilizes the DFT-NL dispersion correction.
Cite in your paper:
Vydrov, O. A.; Van Voorhis, T. J. Chem. Phys. 2010, 133, 244103
Hujo, W.; Grimme, S. J. Chem. Theory Comput. 2011, 7, 3866 
   

================================================================================

----- Orbital basis set information -----
Your calculation utilizes the basis: def2-TZVP
   F. Weigend and R. Ahlrichs, Phys. Chem. Chem. Phys. 7, 3297 (2005).

----- AuxJ basis set information -----
Your calculation utilizes the auxiliary basis: def2/J
   F. Weigend, Phys. Chem. Chem. Phys. 8, 1057 (2006).

================================================================================
                                        WARNINGS
                       Please study these warnings very carefully!
================================================================================


WARNING: Geometry Optimization
  ===> : Switching off AutoStart
         For restart on a previous wavefunction, please use MOREAD

WARNING: Analytic gradients for DFT-NL dispersion can only be done using the self-consistent method,
  ===>   Switching to SCNL

WARNING: Self-consistent DFT-NL dispersion not compatible with AutoTRAH.
  ===>   Switching AutoTRAH off


INFO   : the flag for use of the SHARK integral package has been found!

================================================================================
                                       INPUT FILE
================================================================================
NAME = /burg/berkelbach/users/eav2136/projects/peroxide_dissociation/05_range_separated_functional/wb97x-v-radical/wb97x-v-radical_opt.inp
|  1> ! UKS wB97X-V def2-TZVP TIGHTSCF Opt PAL8
|  2> %maxcore 5000
|  3> * xyz 0 2
|  4>  C -0.07425707479814 6.45007760366319 3.54636897867849
|  5>  S 1.48979584793712 6.08048225687873 2.75598260255209
|  6>  C 1.14936654141856 4.63662227087222 1.83369205968326
|  7>  C -0.09136557109480 4.00305286554088 1.79338352444578
|  8>  C -0.25826928718407 2.84269542505768 1.05936282240646
|  9>  C 0.80050967676942 2.30271389692801 0.33923873907232
| 10>  C 2.02875697338567 2.96040825022008 0.34201900047512
| 11>  C 2.20764771123846 4.10330343094754 1.09121055149825
| 12>  C 0.66254428710301 1.09941809961861 -0.50690159852297
| 13>  O 0.00000000000000 0.00000000000000 0.00000000000000
| 14>  O 1.06713866538631 0.98717129960580 -1.62357736506780
| 15>  H 0.10416325535368 7.34607684664392 4.14087383255362
| 16>  H -0.38882275224257 5.64387294862163 4.21002028523424
| 17>  H -0.85323854703301 6.66443357654391 2.81385647784552
| 18>  H -0.93700004363157 4.40513362395569 2.33421606140266
| 19>  H -1.23507439683237 2.37497021944690 1.02749021968162
| 20>  H 2.84544686618639 2.55882587909200 -0.24576673820719
| 21>  H 3.17295340310622 4.59670965109571 1.10248346369500
| 22> *
| 23> 
| 24>                          ****END OF INPUT****
================================================================================

                       *****************************
                       * Geometry Optimization Run *
                       *****************************

Geometry optimization settings:
Update method            Update   .... BFGS
Choice of coordinates    CoordSys .... Z-matrix Internals
Initial Hessian          InHess   .... Almoef's Model

Convergence Tolerances:
Energy Change            TolE     ....  5.0000e-06 Eh
Max. Gradient            TolMAXG  ....  3.0000e-04 Eh/bohr
RMS Gradient             TolRMSG  ....  1.0000e-04 Eh/bohr
Max. Displacement        TolMAXD  ....  4.0000e-03 bohr
RMS Displacement         TolRMSD  ....  2.0000e-03 bohr
Strict Convergence                ....  False
------------------------------------------------------------------------------
                        ORCA OPTIMIZATION COORDINATE SETUP
------------------------------------------------------------------------------

The optimization will be done in new redundant internal coordinates
Making redundant internal coordinates   ...  (new redundants) done
Evaluating the initial hessian          ...  (Almloef) done
Evaluating the coordinates              ...  done
Calculating the B-matrix                .... done
Calculating the G-matrix                .... done
Diagonalizing the G-matrix              .... done
Small eigenvalue found = 1.379e-02
The first mode is                       ....   31
The number of degrees of freedom        ....   48

    -----------------------------------------------------------------
                    Redundant Internal Coordinates


    -----------------------------------------------------------------
         Definition                    Initial Value    Approx d2E/dq
    -----------------------------------------------------------------
      1. B(S   1,C   0)                  1.7910         0.386175   
      2. B(C   2,S   1)                  1.7468         0.454240   
      3. B(C   3,C   2)                  1.3937         0.616320   
      4. B(C   4,C   3)                  1.3831         0.640745   
      5. B(C   5,C   4)                  1.3897         0.625563   
      6. B(C   6,C   5)                  1.3933         0.617369   
      7. B(C   7,C   2)                  1.3985         0.605696   
      8. B(C   7,C   6)                  1.3782         0.652421   
      9. B(C   8,C   5)                  1.4775         0.453096   
     10. B(O   9,C   8)                  1.3801         0.580356   
     11. B(O  10,C   8)                  1.1930         1.153901   
     12. B(H  11,C   0)                  1.0900         0.360109   
     13. B(H  12,C   0)                  1.0906         0.359342   
     14. B(H  13,C   0)                  1.0906         0.359351   
     15. B(H  14,C   3)                  1.0813         0.371759   
     16. B(H  15,C   4)                  1.0835         0.368828   
     17. B(H  16,C   6)                  1.0834         0.368946   
     18. B(H  17,C   7)                  1.0842         0.367916   
     19. A(S   1,C   0,H  13)          111.5879         0.342618   
     20. A(S   1,C   0,H  12)          111.5859         0.342616   
     21. A(H  12,C   0,H  13)          110.3658         0.290648   
     22. A(H  11,C   0,H  12)          108.8436         0.290744   
     23. A(S   1,C   0,H  11)          105.5091         0.342738   
     24. A(H  11,C   0,H  13)          108.7656         0.290746   
     25. A(C   0,S   1,C   2)          103.4970         0.419917   
     26. A(S   1,C   2,C   7)          116.6202         0.431369   
     27. A(C   3,C   2,C   7)          119.0102         0.431786   
     28. A(S   1,C   2,C   3)          124.3692         0.432719   
     29. A(C   2,C   3,C   4)          120.2744         0.436178   
     30. A(C   4,C   3,H  14)          118.8821         0.356807   
     31. A(C   2,C   3,H  14)          120.8433         0.354461   
     32. A(C   5,C   4,H  15)          120.2581         0.354880   
     33. A(C   3,C   4,H  15)          119.1145         0.356327   
     34. A(C   3,C   4,C   5)          120.6005         0.437350   
     35. A(C   6,C   5,C   8)          117.8994         0.410112   
     36. A(C   4,C   5,C   8)          122.8259         0.411072   
     37. A(C   4,C   5,C   6)          119.1567         0.434432   
     38. A(C   7,C   6,H  16)          120.2952         0.357442   
     39. A(C   5,C   6,H  16)          119.2412         0.354107   
     40. A(C   5,C   6,C   7)          120.4618         0.437734   
     41. A(C   6,C   7,H  17)          119.9087         0.357272   
     42. A(C   2,C   7,H  17)          119.6508         0.352797   
     43. A(C   2,C   7,C   6)          120.4398         0.436231   
     44. A(O   9,C   8,O  10)          115.5727         0.473849   
     45. A(C   5,C   8,O  10)          125.5219         0.455899   
     46. A(C   5,C   8,O   9)          118.8999         0.403044   
     47. D(C   2,S   1,C   0,H  12)     61.4721         0.003898   
     48. D(C   2,S   1,C   0,H  11)    179.5234         0.003898   
     49. D(C   2,S   1,C   0,H  13)    -62.5176         0.003898   
     50. D(C   7,C   2,S   1,C   0)    179.8441         0.004531   
     51. D(C   3,C   2,S   1,C   0)      0.0768         0.004531   
     52. D(C   4,C   3,C   2,S   1)   -178.3900         0.026266   
     53. D(H  14,C   3,C   2,C   7)   -178.3097         0.026266   
     54. D(H  14,C   3,C   2,S   1)      1.4524         0.026266   
     55. D(C   4,C   3,C   2,C   7)      1.8479         0.026266   
     56. D(H  15,C   4,C   3,H  14)      1.1825         0.028529   
     57. D(H  15,C   4,C   3,C   2)   -178.9720         0.028529   
     58. D(C   5,C   4,C   3,H  14)    179.3028         0.028529   
     59. D(C   5,C   4,C   3,C   2)     -0.8517         0.028529   
     60. D(C   6,C   5,C   4,H  15)    176.7603         0.027109   
     61. D(C   6,C   5,C   4,C   3)     -1.3385         0.027109   
     62. D(C   8,C   5,C   4,H  15)      0.7946         0.027109   
     63. D(C   8,C   5,C   4,C   3)   -177.3042         0.027109   
     64. D(H  16,C   6,C   5,C   8)     -1.7852         0.026361   
     65. D(H  16,C   6,C   5,C   4)   -177.9495         0.026361   
     66. D(C   7,C   6,C   5,C   8)    178.6982         0.026361   
     67. D(C   7,C   6,C   5,C   4)      2.5338         0.026361   
     68. D(H  17,C   7,C   6,H  16)     -0.7379         0.029652   
     69. D(H  17,C   7,C   6,C   5)    178.7736         0.029652   
     70. D(C   2,C   7,C   6,H  16)    178.9472         0.029652   
     71. D(C   2,C   7,C   6,C   5)     -1.5413         0.029652   
     72. D(H  17,C   7,C   2,C   3)    179.0287         0.025317   
     73. D(H  17,C   7,C   2,S   1)     -0.7516         0.025317   
     74. D(C   6,C   7,C   2,C   3)     -0.6572         0.025317   
     75. D(C   6,C   7,C   2,S   1)    179.5625         0.025317   
     76. D(O   9,C   8,C   5,C   6)    137.7156         0.013991   
     77. D(O   9,C   8,C   5,C   4)    -46.2708         0.013991   
     78. D(O  10,C   8,C   5,C   6)    -43.1749         0.013991   
     79. D(O  10,C   8,C   5,C   4)    132.8388         0.013991   
    -----------------------------------------------------------------

Number of atoms                         .... 18
Number of degrees of freedom            .... 79

         *************************************************************
         *                GEOMETRY OPTIMIZATION CYCLE   1            *
         *************************************************************
---------------------------------
CARTESIAN COORDINATES (ANGSTROEM)
---------------------------------
  C     -0.074257    6.450078    3.546369
  S      1.489796    6.080482    2.755983
  C      1.149367    4.636622    1.833692
  C     -0.091366    4.003053    1.793384
  C     -0.258269    2.842695    1.059363
  C      0.800510    2.302714    0.339239
  C      2.028757    2.960408    0.342019
  C      2.207648    4.103303    1.091211
  C      0.662544    1.099418   -0.506902
  O      0.000000    0.000000    0.000000
  O      1.067139    0.987171   -1.623577
  H      0.104163    7.346077    4.140874
  H     -0.388823    5.643873    4.210020
  H     -0.853239    6.664434    2.813856
  H     -0.937000    4.405134    2.334216
  H     -1.235074    2.374970    1.027490
  H      2.845447    2.558826   -0.245767
  H      3.172953    4.596710    1.102483

----------------------------
CARTESIAN COORDINATES (A.U.)
----------------------------
  NO LB      ZA    FRAG     MASS         X           Y           Z
   0 C     6.0000    0    12.011   -0.140326   12.188880    6.701666
   1 S    16.0000    0    32.060    2.815306   11.490446    5.208052
   2 C     6.0000    0    12.011    2.171988    8.761946    3.465176
   3 C     6.0000    0    12.011   -0.172656    7.564674    3.389004
   4 C     6.0000    0    12.011   -0.488058    5.371916    2.001906
   5 C     6.0000    0    12.011    1.512744    4.351499    0.641068
   6 C     6.0000    0    12.011    3.833795    5.594361    0.646322
   7 C     6.0000    0    12.011    4.171850    7.754120    2.062089
   8 C     6.0000    0    12.011    1.252027    2.077599   -0.957905
   9 O     8.0000    0    15.999    0.000000    0.000000    0.000000
  10 O     8.0000    0    15.999    2.016600    1.865483   -3.068117
  11 H     1.0000    0     1.008    0.196840   13.882073    7.825117
  12 H     1.0000    0     1.008   -0.734769   10.665374    7.955785
  13 H     1.0000    0     1.008   -1.612387   12.593954    5.317418
  14 H     1.0000    0     1.008   -1.770673    8.324496    4.411029
  15 H     1.0000    0     1.008   -2.333952    4.488043    1.941675
  16 H     1.0000    0     1.008    5.377115    4.835480   -0.464432
  17 H     1.0000    0     1.008    5.996013    8.686522    2.083392

--------------------------------
INTERNAL COORDINATES (ANGSTROEM)
--------------------------------
 C      0   0   0     0.000000000000     0.00000000     0.00000000
 S      1   0   0     1.790969818017     0.00000000     0.00000000
 C      2   1   0     1.746780929995   103.49703222     0.00000000
 C      3   2   1     1.393718459520   124.36918170     0.07682297
 C      4   3   2     1.383138688329   120.27439762   181.60997218
 C      5   4   3     1.389666017657   120.60050203   359.14829865
 C      6   5   4     1.393255545064   119.15672375   358.66151732
 C      7   6   5     1.378223229504   120.46180539     2.53383799
 C      6   5   4     1.477466986255   122.82593719   182.69580816
 O      9   6   5     1.380084896203   118.89987975   313.72924568
 O      9   6   5     1.193004913083   125.52191253   132.83876530
 H      1   2   3     1.089992880213   105.50910599   179.52342869
 H      1   2   3     1.090573504139   111.58592171    61.47211732
 H      1   2   3     1.090566449636   111.58785041   297.48242808
 H      4   3   2     1.081326236832   120.84329981     1.45240478
 H      5   4   3     1.083480942612   119.11451180   181.02803207
 H      7   6   5     1.083394137146   119.24119758   182.05045369
 H      8   7   6     1.084154903776   119.90872766   178.77361985

---------------------------
INTERNAL COORDINATES (A.U.)
---------------------------
 C      0   0   0     0.000000000000     0.00000000     0.00000000
 S      1   0   0     3.384442470171     0.00000000     0.00000000
 C      2   1   0     3.300937573646   103.49703222     0.00000000
 C      3   2   1     2.633746196283   124.36918170     0.07682297
 C      4   3   2     2.613753326172   120.27439762   181.60997218
 C      5   4   3     2.626088190988   120.60050203   359.14829865
 C      6   5   4     2.632871414738   119.15672375   358.66151732
 C      7   6   5     2.604464455171   120.46180539     2.53383799
 C      6   5   4     2.792007975932   122.82593719   182.69580816
 O      9   6   5     2.607982495384   118.89987975   313.72924568
 O      9   6   5     2.254452562149   125.52191253   132.83876530
 H      1   2   3     2.059788031526   105.50910599   179.52342869
 H      1   2   3     2.060885251733   111.58592171    61.47211732
 H      1   2   3     2.060871920655   111.58785041   297.48242808
 H      4   3   2     2.043410449036   120.84329981     1.45240478
 H      5   4   3     2.047482252859   119.11451180   181.02803207
 H      7   6   5     2.047318214302   119.24119758   182.05045369
 H      8   7   6     2.048755854885   119.90872766   178.77361985

---------------------
BASIS SET INFORMATION
---------------------
There are 4 groups of distinct atoms

 Group   1 Type C   : 11s6p2d1f contracted to 5s3p2d1f pattern {62111/411/11/1}
 Group   2 Type S   : 14s9p3d1f contracted to 5s5p2d1f pattern {73211/51111/21/1}
 Group   3 Type O   : 11s6p2d1f contracted to 5s3p2d1f pattern {62111/411/11/1}
 Group   4 Type H   : 5s1p contracted to 3s1p pattern {311/1}

Atom   0C    basis set group =>   1
Atom   1S    basis set group =>   2
Atom   2C    basis set group =>   1
Atom   3C    basis set group =>   1
Atom   4C    basis set group =>   1
Atom   5C    basis set group =>   1
Atom   6C    basis set group =>   1
Atom   7C    basis set group =>   1
Atom   8C    basis set group =>   1
Atom   9O    basis set group =>   3
Atom  10O    basis set group =>   3
Atom  11H    basis set group =>   4
Atom  12H    basis set group =>   4
Atom  13H    basis set group =>   4
Atom  14H    basis set group =>   4
Atom  15H    basis set group =>   4
Atom  16H    basis set group =>   4
Atom  17H    basis set group =>   4
---------------------------------
AUXILIARY/J BASIS SET INFORMATION
---------------------------------
There are 4 groups of distinct atoms

 Group   1 Type C   : 12s5p4d2f1g contracted to 6s4p3d1f1g pattern {711111/2111/211/2/1}
 Group   2 Type S   : 14s5p5d2f1g contracted to 8s4p3d1f1g pattern {71111111/2111/311/2/1}
 Group   3 Type O   : 12s5p4d2f1g contracted to 6s4p3d1f1g pattern {711111/2111/211/2/1}
 Group   4 Type H   : 5s2p1d contracted to 3s1p1d pattern {311/2/1}

Atom   0C    basis set group =>   1
Atom   1S    basis set group =>   2
Atom   2C    basis set group =>   1
Atom   3C    basis set group =>   1
Atom   4C    basis set group =>   1
Atom   5C    basis set group =>   1
Atom   6C    basis set group =>   1
Atom   7C    basis set group =>   1
Atom   8C    basis set group =>   1
Atom   9O    basis set group =>   3
Atom  10O    basis set group =>   3
Atom  11H    basis set group =>   4
Atom  12H    basis set group =>   4
Atom  13H    basis set group =>   4
Atom  14H    basis set group =>   4
Atom  15H    basis set group =>   4
Atom  16H    basis set group =>   4
Atom  17H    basis set group =>   4


           ************************************************************
           *        Program running with 8 parallel MPI-processes     *
           *              working on a common directory               *
           ************************************************************
------------------------------------------------------------------------------
                           ORCA GTO INTEGRAL CALCULATION
                           -- RI-GTO INTEGRALS CHOSEN --
------------------------------------------------------------------------------
------------------------------------------------------------------------------
                   ___                                                        
                  /   \      - P O W E R E D   B Y -                         
                 /     \                                                     
                 |  |  |   _    _      __       _____    __    __             
                 |  |  |  | |  | |    /  \     |  _  \  |  |  /  |          
                  \  \/   | |  | |   /    \    | | | |  |  | /  /          
                 / \  \   | |__| |  /  /\  \   | |_| |  |  |/  /          
                |  |  |   |  __  | /  /__\  \  |    /   |      \           
                |  |  |   | |  | | |   __   |  |    \   |  |\   \          
                \     /   | |  | | |  |  |  |  | |\  \  |  | \   \       
                 \___/    |_|  |_| |__|  |__|  |_| \__\ |__|  \__/        
                                                                              
                      - O R C A' S   B I G   F R I E N D -                    
                                      &                                       
                       - I N T E G R A L  F E E D E R -                       
                                                                              
 v1 FN, 2020, v2 2021                                                         
------------------------------------------------------------------------------


Reading SHARK input file /burg/berkelbach/users/eav2136/projects/peroxide_dissociation/05_range_separated_functional/wb97x-v-radical/wb97x-v-radical_opt.SHARKINP.tmp ... ok
----------------------
SHARK INTEGRAL PACKAGE
----------------------

Number of atoms                             ...     18
Number of basis functions                   ...    389
Number of shells                            ...    151
Maximum angular momentum                    ...      3
Integral batch strategy                     ... SHARK/LIBINT Hybrid
RI-J (if used) integral strategy            ... SPLIT-RIJ (Revised 2003 algorithm where possible)
Printlevel                                  ...      1
Contraction scheme used                     ... SEGMENTED contraction
Coulomb Range Separation                    ... NOT USED
Exchange Range Separation                   ... Long Range
   Mu parameter                             ...  0.300000
   Scaling (regular/separated)              ...  0.167000  0.833000
Finite Nucleus Model                        ... NOT USED
Auxiliary Coulomb fitting basis             ... AVAILABLE
   # of basis functions in Aux-J            ...    618
   # of shells in Aux-J                     ...    202
   Maximum angular momentum in Aux-J        ...      4
Auxiliary J/K fitting basis                 ... NOT available
Auxiliary Correlation fitting basis         ... NOT available
Auxiliary 'external' fitting basis          ... NOT available
Integral threshold                          ...     2.500000e-11
Primitive cut-off                           ...     2.500000e-12
Primitive pair pre-selection threshold      ...     2.500000e-12

Calculating pre-screening integrals         ... done (  0.0 sec) Dimension = 151
Organizing shell pair data                  ... done (  0.3 sec)
Shell pair information
Total number of shell pairs                 ...     11476
Shell pairs after pre-screening             ...      9496
Total number of primitive shell pairs       ...     36592
Primitive shell pairs kept                  ...     21620
          la=0 lb=0:   2303 shell pairs
          la=1 lb=0:   2678 shell pairs
          la=1 lb=1:    796 shell pairs
          la=2 lb=0:   1383 shell pairs
          la=2 lb=1:    801 shell pairs
          la=2 lb=2:    220 shell pairs
          la=3 lb=0:    667 shell pairs
          la=3 lb=1:    390 shell pairs
          la=3 lb=2:    204 shell pairs
          la=3 lb=3:     54 shell pairs

Calculating one electron integrals          ... done (  0.5 sec)
Calculating RI/J V-Matrix + Cholesky decomp.... done (  1.0 sec)
Calculating Nuclear repulsion               ... done (  0.0 sec) ENN=    631.489285915085 Eh

SHARK setup successfully completed in   7.0 seconds

Maximum memory used throughout the entire GTOINT-calculation: 24.2 MB


           ************************************************************
           *        Program running with 8 parallel MPI-processes     *
           *              working on a common directory               *
           ************************************************************
-------------------------------------------------------------------------------
                                 ORCA SCF
-------------------------------------------------------------------------------

------------
SCF SETTINGS
------------
Hamiltonian:
 Density Functional     Method          .... DFT(GTOs)
 Exchange Functional    Exchange        .... WB97X-V
 Correlation Functional Correlation     .... WB97X-V
 Gradients option       PostSCFGGA      .... off
 Hybrid DFT is turned on
   Fraction HF Exchange ScalHFX         ....  0.167000
   Scaling of DF-GGA-X  ScalDFX         ....  0.000000
   Scaling of DF-GGA-C  ScalDFC         ....  1.000000
   Scaling of DF-LDA-C  ScalLDAC        ....  1.000000
   Perturbative correction              ....  0.000000
   Density functional embedding theory  .... OFF
 Long-range corrected/Screened/Range-Separated Hybrid DFT is turned on
   Amount of maximum screened exact exchange              ....  0.833000
   Range separation parameter mu (erf(mu*r12)/r12)        ....  0.300000
   NL short-range parameter             ....  6.000000
   NL long-range parameter              ....  0.010000
 RI-approximation to the Coulomb term is turned on
   Number of AuxJ basis functions       .... 618
   RIJ-COSX (HFX calculated with COS-X)).... on


General Settings:
 Integral files         IntName         .... /burg/berkelbach/users/eav2136/projects/peroxide_dissociation/05_range_separated_functional/wb97x-v-radical/wb97x-v-radical_opt
 Hartree-Fock type      HFTyp           .... UHF
 Total Charge           Charge          ....    0
 Multiplicity           Mult            ....    2
 Number of Electrons    NEL             ....   87
 Basis Dimension        Dim             ....  389
 Nuclear Repulsion      ENuc            ....    631.4892859151 Eh

Convergence Acceleration:
 DIIS                   CNVDIIS         .... on
   Start iteration      DIISMaxIt       ....    12
   Startup error        DIISStart       ....  0.200000
   # of expansion vecs  DIISMaxEq       ....     5
   Bias factor          DIISBfac        ....   1.050
   Max. coefficient     DIISMaxC        ....  10.000
 Trust-Rad. Augm. Hess. CNVTRAH         .... off
 SOSCF                  CNVSOSCF        .... off
 Level Shifting         CNVShift        .... on
   Level shift para.    LevelShift      ....    0.2500
   Turn off err/grad.   ShiftErr        ....    0.0010
 Zerner damping         CNVZerner       .... off
 Static damping         CNVDamp         .... on
   Fraction old density DampFac         ....    0.7000
   Max. Damping (<1)    DampMax         ....    0.9800
   Min. Damping (>=0)   DampMin         ....    0.0000
   Turn off err/grad.   DampErr         ....    0.1000
 Fernandez-Rico         CNVRico         .... off

SCF Procedure:
 Maximum # iterations   MaxIter         ....   125
 SCF integral mode      SCFMode         .... Direct
   Integral package                     .... SHARK and LIBINT hybrid scheme
 Reset frequency        DirectResetFreq ....    20
 Integral Threshold     Thresh          ....  2.500e-11 Eh
 Primitive CutOff       TCut            ....  2.500e-12 Eh

Convergence Tolerance:
 Convergence Check Mode ConvCheckMode   .... Total+1el-Energy
 Convergence forced     ConvForced      .... 0
 Energy Change          TolE            ....  1.000e-08 Eh
 1-El. energy change                    ....  1.000e-05 Eh
 DIIS Error             TolErr          ....  5.000e-07


Diagonalization of the overlap matrix:
Smallest eigenvalue                        ... 7.498e-06
Time for diagonalization                   ...    0.056 sec
Threshold for overlap eigenvalues          ... 1.000e-08
Number of eigenvalues below threshold      ... 0
Time for construction of square roots      ...    0.195 sec
Total time needed                          ...    0.252 sec

Time for model grid setup =    3.263 sec

------------------------------
INITIAL GUESS: MODEL POTENTIAL
------------------------------
Loading Hartree-Fock densities                     ... done
Calculating cut-offs                               ... done
Initializing the effective Hamiltonian             ... done
Setting up the integral package (SHARK)            ... done
Starting the Coulomb interaction                   ... done (   1.4 sec)
Reading the grid                                   ... done
Mapping shells                                     ... done
Starting the XC term evaluation                    ... done (   0.5 sec)
  promolecular density results
     # of electrons  =     87.002319788
     EX              =    -58.759239701
     EC              =     -3.795441001
     EX+EC           =    -62.554680701
Transforming the Hamiltonian                       ... done (   0.4 sec)
Diagonalizing the Hamiltonian                      ... done (   0.0 sec)
Back transforming the eigenvectors                 ... done (   0.0 sec)
Now organizing SCF variables                       ... done
                      ------------------
                      INITIAL GUESS DONE (   5.6 sec)
                      ------------------
-------------------
DFT GRID GENERATION
-------------------

General Integration Accuracy     IntAcc      ... 4.388
Radial Grid Type                 RadialGrid  ... OptM3 with GC (2021)
Angular Grid (max. ang.)         AngularGrid ... 4 (Lebedev-302)
Angular grid pruning method      GridPruning ... 4 (adaptive)
Weight generation scheme         WeightScheme... Becke
Basis function cutoff            BFCut       ... 1.0000e-11
Integration weight cutoff        WCut        ... 1.0000e-14
Angular grids for H and He will be reduced by one unit
Partially contracted basis set               ... off
Rotationally invariant grid construction     ... off

Total number of grid points                  ...    90151
Total number of batches                      ...     1417
Average number of points per batch           ...       63
Average number of grid points per atom       ...     5008

------------------
NL GRID GENERATION
------------------

General Integration Accuracy     IntAcc      ... 4.004
Radial Grid Type                 RadialGrid  ... OptM3 with GC (2021)
Angular Grid (max. ang.)         AngularGrid ... 2 (Lebedev-110)
Angular grid pruning method      GridPruning ... 4 (adaptive)
Weight generation scheme         WeightScheme... Becke
Basis function cutoff            BFCut       ... 1.0000e-10
Integration weight cutoff        WCut        ... 1.0000e-14
Angular grids for H and He will be reduced by one unit
Partially contracted basis set               ... off
Rotationally invariant grid construction     ... off

Total number of grid points                  ...    29042
Total number of batches                      ...      463
Average number of points per batch           ...       62
Average number of grid points per atom       ...     1613
Time for grid setup =    0.533 sec

--------------------
COSX GRID GENERATION
--------------------

GRIDX 1
-------
General Integration Accuracy     IntAcc      ... 3.816
Radial Grid Type                 RadialGrid  ... OptM3 with GC (2021)
Angular Grid (max. ang.)         AngularGrid ... 1 (Lebedev-50)
Angular grid pruning method      GridPruning ... 4 (adaptive)
Weight generation scheme         WeightScheme... Becke
Basis function cutoff            BFCut       ... 1.0000e-11
Integration weight cutoff        WCut        ... 1.0000e-14
Angular grids for H and He will be reduced by one unit
Partially contracted basis set               ... on
Rotationally invariant grid construction     ... off

Total number of grid points                  ...    11402
Total number of batches                      ...      186
Average number of points per batch           ...       61
Average number of grid points per atom       ...      633
UseSFitting                                  ... on

GRIDX 2
-------
General Integration Accuracy     IntAcc      ... 4.020
Radial Grid Type                 RadialGrid  ... OptM3 with GC (2021)
Angular Grid (max. ang.)         AngularGrid ... 2 (Lebedev-110)
Angular grid pruning method      GridPruning ... 4 (adaptive)
Weight generation scheme         WeightScheme... Becke
Basis function cutoff            BFCut       ... 1.0000e-11
Integration weight cutoff        WCut        ... 1.0000e-14
Angular grids for H and He will be reduced by one unit
Partially contracted basis set               ... on
Rotationally invariant grid construction     ... off

Total number of grid points                  ...    25317
Total number of batches                      ...      406
Average number of points per batch           ...       62
Average number of grid points per atom       ...     1406
UseSFitting                                  ... on

GRIDX 3
-------
General Integration Accuracy     IntAcc      ... 4.338
Radial Grid Type                 RadialGrid  ... OptM3 with GC (2021)
Angular Grid (max. ang.)         AngularGrid ... 3 (Lebedev-194)
Angular grid pruning method      GridPruning ... 4 (adaptive)
Weight generation scheme         WeightScheme... Becke
Basis function cutoff            BFCut       ... 1.0000e-11
Integration weight cutoff        WCut        ... 1.0000e-14
Angular grids for H and He will be reduced by one unit
Partially contracted basis set               ... on
Rotationally invariant grid construction     ... off

Total number of grid points                  ...    56227
Total number of batches                      ...      886
Average number of points per batch           ...       63
Average number of grid points per atom       ...     3124
UseSFitting                                  ... on

Time for X-Grid setup             =    0.624 sec

--------------
SCF ITERATIONS
--------------
ITER       Energy         Delta-E        Max-DP      RMS-DP      [F,P]     Damp
               ***  Starting incremental Fock matrix formation  ***
  0   -857.2980085379   0.000000000000 0.06180951  0.00094840  0.1666093 0.7000
  1   -857.4098557790  -0.111847241093 0.06328273  0.00090142  0.1187510 0.7000
                               ***Turning on DIIS***
  2   -857.4676689512  -0.057813172168 0.22670198  0.00266356  0.0845033 0.0000
  3   -857.5651386031  -0.097469651883 0.19268832  0.00091347  0.0387448 0.0000
  4   -857.5948990687  -0.029760465610 0.07903046  0.00039199  0.0133236 0.0000
  5   -857.6022810226  -0.007381953889 0.06662798  0.00031087  0.0202299 0.0000
  6   -857.6085289283  -0.006247905681 0.06399308  0.00030908  0.0098855 0.0000
  7   -857.6150360184  -0.006507090167 0.04624906  0.00024793  0.0092503 0.0000
  8   -857.6204256725  -0.005389654079 0.02106835  0.00012639  0.0084232 0.0000
  9   -857.6236634200  -0.003237747452 0.03188124  0.00020359  0.0066554 0.0000
 10   -857.6270462531  -0.003382833132 0.00434791  0.00005331  0.0063546 0.0000
 11   -857.6284852239  -0.001438970785 0.01726025  0.00012840  0.0044737 0.0000
 12   -857.6298737868  -0.001388562917 0.00580994  0.00005582  0.0039648 0.0000
 13   -857.6305434854  -0.000669698624 0.00200276  0.00003069  0.0027367 0.0000
 14   -857.6308794216  -0.000335936172 0.00169730  0.00002774  0.0019149 0.0000
 15   -857.6310621448  -0.000182723229 0.00103850  0.00001633  0.0011017 0.0000
 16   -857.6311459913  -0.000083846443 0.00116140  0.00001532  0.0010025 0.0000
 17   -857.6312035841  -0.000057592820 0.00205750  0.00002138  0.0009226 0.0000
               *** Restarting incremental Fock matrix formation ***
                                   *** Resetting DIIS ***
 18   -857.6312495762  -0.000045992094 0.00116745  0.00001553  0.0007329 0.0000
 19   -857.6312616157  -0.000012039524 0.00078630  0.00000587  0.0006362 0.0000
 20   -857.6312723793  -0.000010763577 0.00170869  0.00001242  0.0005951 0.0000
 21   -857.6312919984  -0.000019619135 0.00155687  0.00001128  0.0004829 0.0000
 22   -857.6313052154  -0.000013216945 0.00093642  0.00000713  0.0004472 0.0000
 23   -857.6313118270  -0.000006611622 0.00094255  0.00000739  0.0003984 0.0000
 24   -857.6313175973  -0.000005770347 0.00107478  0.00000843  0.0003351 0.0000
 25   -857.6313228855  -0.000005288148 0.00094304  0.00000718  0.0002428 0.0000
 26   -857.6313261918  -0.000003306363 0.00073731  0.00000561  0.0001625 0.0000
 27   -857.6313279580  -0.000001766209 0.00057716  0.00000446  0.0000996 0.0000
 28   -857.6313288616  -0.000000903558 0.00039564  0.00000310  0.0000721 0.0000
 29   -857.6313292207  -0.000000359130 0.00023332  0.00000194  0.0000322 0.0000
 30   -857.6313293259  -0.000000105182 0.00012622  0.00000106  0.0000292 0.0000
 31   -857.6313293315  -0.000000005567 0.00005823  0.00000063  0.0000158 0.0000
 32   -857.6313293467  -0.000000015203 0.00009662  0.00000080  0.0000152 0.0000
 33   -857.6313293513  -0.000000004631 0.00003987  0.00000061  0.0000136 0.0000
 34   -857.6313293363   0.000000015045 0.00001988  0.00000037  0.0000122 0.0000
 35   -857.6313293522  -0.000000015893 0.00010482  0.00000091  0.0000115 0.0000
 36   -857.6313293494   0.000000002716 0.00004890  0.00000040  0.0000106 0.0000
 37   -857.6313293415   0.000000007917 0.00004232  0.00000049  0.0000104 0.0000
               *** Restarting incremental Fock matrix formation ***
                                   *** Resetting DIIS ***
 38   -857.6313293812  -0.000000039701 0.00004765  0.00000052  0.0000099 0.0000
                 **** Energy Check signals convergence ****

               *****************************************************
               *                     SUCCESS                       *
               *           SCF CONVERGED AFTER  39 CYCLES          *
               *****************************************************

Old exchange energy                            =    -25.677063602 Eh
New exchange energy                            =    -25.677052815 Eh
Exchange energy change after final integration =      0.000010787 Eh
Total energy after final integration           =   -857.631318596 Eh
Final COS-X integration done in                =     9.228 sec

----------------
TOTAL SCF ENERGY
----------------

Total Energy       :         -857.63131860 Eh          -23337.33463 eV

Components:
Nuclear Repulsion  :          631.48928592 Eh           17183.69707 eV
Electronic Energy  :        -1489.12060451 Eh          -40521.03170 eV
One Electron Energy:        -2426.30986370 Eh          -66023.24795 eV
Two Electron Energy:          937.18925919 Eh           25502.21625 eV
Max COSX asymmetry :            0.00000044 Eh               0.00001 eV

Virial components:
Potential Energy   :        -1712.94763084 Eh          -46611.67473 eV
Kinetic Energy     :          855.31631224 Eh           23274.34010 eV
Virial Ratio       :            2.00270661


DFT components:
N(Alpha)           :       44.000018382657 electrons
N(Beta)            :       43.000017800316 electrons
N(Total)           :       87.000036182974 electrons
E(X)               :      -59.586005506912 Eh       
E(C)               :       -3.806757825324 Eh       
NL Energy, E(C,NL) :        0.335950225118 Eh       
E(XC)              :      -63.056813107119 Eh       
DFET-embed. en.    :        0.000000000000 Eh       

---------------
SCF CONVERGENCE
---------------

  Last Energy change         ...   -2.1449e-09  Tolerance :   1.0000e-08
  Last MAX-Density change    ...    0.0000e+00  Tolerance :   1.0000e-07
  Last RMS-Density change    ...    0.0000e+00  Tolerance :   5.0000e-09
  Last DIIS Error            ...    9.4851e-06  Tolerance :   5.0000e-07

             **** THE GBW FILE WAS UPDATED (/burg/berkelbach/users/eav2136/projects/peroxide_dissociation/05_range_separated_functional/wb97x-v-radical/wb97x-v-radical_opt.gbw) ****
             **** DENSITY /burg/berkelbach/users/eav2136/projects/peroxide_dissociation/05_range_separated_functional/wb97x-v-radical/wb97x-v-radical_opt.scfp WAS UPDATED ****
             **** ENERGY FILE WAS UPDATED (/burg/berkelbach/users/eav2136/projects/peroxide_dissociation/05_range_separated_functional/wb97x-v-radical/wb97x-v-radical_opt.en.tmp) ****
----------------------
UHF SPIN CONTAMINATION
----------------------

Warning: in a DFT calculation there is little theoretical justification to 
         calculate <S**2> as in Hartree-Fock theory. We will do it anyways
         but you should keep in mind that the values have only limited relevance

Expectation value of <S**2>     :     0.754975
Ideal value S*(S+1) for S=0.5   :     0.750000
Deviation                       :     0.004975

             **** THE GBW FILE WAS UPDATED (/burg/berkelbach/users/eav2136/projects/peroxide_dissociation/05_range_separated_functional/wb97x-v-radical/wb97x-v-radical_opt.gbw) ****
             **** DENSITY /burg/berkelbach/users/eav2136/projects/peroxide_dissociation/05_range_separated_functional/wb97x-v-radical/wb97x-v-radical_opt.scfp WAS UPDATED ****
----------------
ORBITAL ENERGIES
----------------
                 SPIN UP ORBITALS
  NO   OCC          E(Eh)            E(eV) 
   0   1.0000     -88.880860     -2418.5711 
   1   1.0000     -19.307382      -525.3806 
   2   1.0000     -19.228343      -523.2298 
   3   1.0000     -10.419148      -283.5194 
   4   1.0000     -10.334357      -281.2122 
   5   1.0000     -10.314482      -280.6713 
   6   1.0000     -10.307180      -280.4726 
   7   1.0000     -10.306308      -280.4489 
   8   1.0000     -10.302677      -280.3501 
   9   1.0000     -10.297467      -280.2083 
  10   1.0000     -10.296347      -280.1778 
  11   1.0000      -8.059554      -219.3116 
  12   1.0000      -6.015813      -163.6986 
  13   1.0000      -6.011523      -163.5819 
  14   1.0000      -6.006666      -163.4497 
  15   1.0000      -1.250718       -34.0338 
  16   1.0000      -1.150315       -31.3017 
  17   1.0000      -1.035008       -28.1640 
  18   1.0000      -0.967615       -26.3302 
  19   1.0000      -0.911812       -24.8117 
  20   1.0000      -0.903948       -24.5977 
  21   1.0000      -0.818515       -22.2729 
  22   1.0000      -0.764339       -20.7987 
  23   1.0000      -0.744435       -20.2571 
  24   1.0000      -0.703927       -19.1548 
  25   1.0000      -0.655414       -17.8347 
  26   1.0000      -0.616595       -16.7784 
  27   1.0000      -0.605408       -16.4740 
  28   1.0000      -0.592827       -16.1317 
  29   1.0000      -0.585300       -15.9268 
  30   1.0000      -0.567565       -15.4442 
  31   1.0000      -0.565665       -15.3925 
  32   1.0000      -0.561074       -15.2676 
  33   1.0000      -0.541318       -14.7300 
  34   1.0000      -0.519445       -14.1348 
  35   1.0000      -0.510357       -13.8875 
  36   1.0000      -0.486396       -13.2355 
  37   1.0000      -0.474067       -12.9000 
  38   1.0000      -0.449814       -12.2401 
  39   1.0000      -0.440614       -11.9897 
  40   1.0000      -0.423606       -11.5269 
  41   1.0000      -0.407349       -11.0845 
  42   1.0000      -0.376982       -10.2582 
  43   1.0000      -0.320521        -8.7218 
  44   0.0000       0.020306         0.5525 
  45   0.0000       0.044583         1.2132 
  46   0.0000       0.089362         2.4317 
  47   0.0000       0.109494         2.9795 
  48   0.0000       0.115816         3.1515 
  49   0.0000       0.140246         3.8163 
  50   0.0000       0.148791         4.0488 
  51   0.0000       0.159383         4.3370 
  52   0.0000       0.166125         4.5205 
  53   0.0000       0.168831         4.5941 
  54   0.0000       0.173113         4.7107 
  55   0.0000       0.195059         5.3078 
  56   0.0000       0.208535         5.6745 
  57   0.0000       0.210955         5.7404 
  58   0.0000       0.216354         5.8873 
  59   0.0000       0.240582         6.5466 
  60   0.0000       0.251672         6.8483 
  61   0.0000       0.262329         7.1383 
  62   0.0000       0.282946         7.6994 
  63   0.0000       0.284218         7.7340 
  64   0.0000       0.289263         7.8712 
  65   0.0000       0.304432         8.2840 
  66   0.0000       0.307012         8.3542 
  67   0.0000       0.313784         8.5385 
  68   0.0000       0.319924         8.7056 
  69   0.0000       0.326555         8.8860 
  70   0.0000       0.331003         9.0070 
  71   0.0000       0.356885         9.7113 
  72   0.0000       0.359867         9.7925 
  73   0.0000       0.371958        10.1215 
  74   0.0000       0.383910        10.4467 
  75   0.0000       0.393810        10.7161 
  76   0.0000       0.399759        10.8780 
  77   0.0000       0.416019        11.3205 
  78   0.0000       0.420709        11.4481 
  79   0.0000       0.425958        11.5909 
  80   0.0000       0.436123        11.8675 
  81   0.0000       0.438527        11.9329 
  82   0.0000       0.449967        12.2442 
  83   0.0000       0.463774        12.6199 
  84   0.0000       0.475261        12.9325 
  85   0.0000       0.485240        13.2040 
  86   0.0000       0.485648        13.2151 
  87   0.0000       0.494546        13.4573 
  88   0.0000       0.501462        13.6455 
  89   0.0000       0.507907        13.8209 
  90   0.0000       0.512782        13.9535 
  91   0.0000       0.522008        14.2046 
  92   0.0000       0.535684        14.5767 
  93   0.0000       0.542255        14.7555 
  94   0.0000       0.547302        14.8929 
  95   0.0000       0.555708        15.1216 
  96   0.0000       0.561311        15.2741 
  97   0.0000       0.582997        15.8642 
  98   0.0000       0.590569        16.0702 
  99   0.0000       0.605138        16.4666 
 100   0.0000       0.620577        16.8868 
 101   0.0000       0.626960        17.0604 
 102   0.0000       0.642529        17.4841 
 103   0.0000       0.648662        17.6510 
 104   0.0000       0.658803        17.9269 
 105   0.0000       0.667080        18.1522 
 106   0.0000       0.669293        18.2124 
 107   0.0000       0.695951        18.9378 
 108   0.0000       0.709325        19.3017 
 109   0.0000       0.718536        19.5524 
 110   0.0000       0.736470        20.0404 
 111   0.0000       0.743578        20.2338 
 112   0.0000       0.760592        20.6968 
 113   0.0000       0.771501        20.9936 
 114   0.0000       0.773777        21.0555 
 115   0.0000       0.791401        21.5351 
 116   0.0000       0.810083        22.0435 
 117   0.0000       0.824529        22.4366 
 118   0.0000       0.838516        22.8172 
 119   0.0000       0.845092        22.9961 
 120   0.0000       0.852220        23.1901 
 121   0.0000       0.863700        23.5025 
 122   0.0000       0.879662        23.9368 
 123   0.0000       0.899522        24.4772 
 124   0.0000       0.917348        24.9623 
 125   0.0000       0.926875        25.2216 
 126   0.0000       0.932685        25.3797 
 127   0.0000       0.937481        25.5102 
 128   0.0000       0.965275        26.2665 
 129   0.0000       0.989610        26.9286 
 130   0.0000       0.996719        27.1221 
 131   0.0000       1.009980        27.4829 
 132   0.0000       1.024169        27.8691 
 133   0.0000       1.031460        28.0674 
 134   0.0000       1.045493        28.4493 
 135   0.0000       1.049647        28.5623 
 136   0.0000       1.070171        29.1208 
 137   0.0000       1.085221        29.5304 
 138   0.0000       1.102298        29.9950 
 139   0.0000       1.117141        30.3990 
 140   0.0000       1.124301        30.5938 
 141   0.0000       1.159555        31.5531 
 142   0.0000       1.209570        32.9141 
 143   0.0000       1.231843        33.5202 
 144   0.0000       1.241158        33.7736 
 145   0.0000       1.254231        34.1294 
 146   0.0000       1.288342        35.0576 
 147   0.0000       1.300232        35.3811 
 148   0.0000       1.316105        35.8130 
 149   0.0000       1.326059        36.0839 
 150   0.0000       1.340181        36.4682 
 151   0.0000       1.343396        36.5557 
 152   0.0000       1.379751        37.5449 
 153   0.0000       1.385699        37.7068 
 154   0.0000       1.415066        38.5059 
 155   0.0000       1.427732        38.8506 
 156   0.0000       1.443306        39.2744 
 157   0.0000       1.453759        39.5588 
 158   0.0000       1.507735        41.0276 
 159   0.0000       1.527988        41.5787 
 160   0.0000       1.541255        41.9397 
 161   0.0000       1.562837        42.5270 
 162   0.0000       1.571968        42.7754 
 163   0.0000       1.576062        42.8868 
 164   0.0000       1.587511        43.1984 
 165   0.0000       1.598394        43.4945 
 166   0.0000       1.600592        43.5543 
 167   0.0000       1.604460        43.6596 
 168   0.0000       1.615675        43.9647 
 169   0.0000       1.635400        44.5015 
 170   0.0000       1.638422        44.5837 
 171   0.0000       1.643075        44.7103 
 172   0.0000       1.650890        44.9230 
 173   0.0000       1.669446        45.4279 
 174   0.0000       1.683122        45.8001 
 175   0.0000       1.689399        45.9709 
 176   0.0000       1.698495        46.2184 
 177   0.0000       1.713888        46.6373 
 178   0.0000       1.738761        47.3141 
 179   0.0000       1.753692        47.7204 
 180   0.0000       1.768184        48.1147 
 181   0.0000       1.776974        48.3539 
 182   0.0000       1.781567        48.4789 
 183   0.0000       1.790329        48.7173 
 184   0.0000       1.811131        49.2834 
 185   0.0000       1.823105        49.6092 
 186   0.0000       1.859671        50.6042 
 187   0.0000       1.874182        50.9991 
 188   0.0000       1.898340        51.6565 
 189   0.0000       1.914137        52.0863 
 190   0.0000       1.926477        52.4221 
 191   0.0000       1.932257        52.5794 
 192   0.0000       1.942023        52.8451 
 193   0.0000       1.949705        53.0542 
 194   0.0000       1.959289        53.3150 
 195   0.0000       1.968827        53.5745 
 196   0.0000       1.978825        53.8466 
 197   0.0000       2.002346        54.4866 
 198   0.0000       2.009769        54.6886 
 199   0.0000       2.046661        55.6925 
 200   0.0000       2.062211        56.1156 
 201   0.0000       2.105334        57.2891 
 202   0.0000       2.120948        57.7139 
 203   0.0000       2.140454        58.2447 
 204   0.0000       2.151808        58.5537 
 205   0.0000       2.163236        58.8646 
 206   0.0000       2.174957        59.1836 
 207   0.0000       2.184421        59.4411 
 208   0.0000       2.194542        59.7165 
 209   0.0000       2.224900        60.5426 
 210   0.0000       2.236305        60.8529 
 211   0.0000       2.258561        61.4586 
 212   0.0000       2.268433        61.7272 
 213   0.0000       2.279759        62.0354 
 214   0.0000       2.304502        62.7087 
 215   0.0000       2.325263        63.2736 
 216   0.0000       2.329964        63.4015 
 217   0.0000       2.354305        64.0639 
 218   0.0000       2.366196        64.3875 
 219   0.0000       2.392253        65.0965 
 220   0.0000       2.423665        65.9513 
 221   0.0000       2.442983        66.4770 
 222   0.0000       2.453186        66.7546 
 223   0.0000       2.494457        67.8776 
 224   0.0000       2.498925        67.9992 
 225   0.0000       2.513110        68.3852 
 226   0.0000       2.539848        69.1128 
 227   0.0000       2.611771        71.0699 
 228   0.0000       2.623621        71.3924 
 229   0.0000       2.631397        71.6040 
 230   0.0000       2.659579        72.3708 
 231   0.0000       2.673659        72.7540 
 232   0.0000       2.678860        72.8955 
 233   0.0000       2.696810        73.3839 
 234   0.0000       2.706536        73.6486 
 235   0.0000       2.726480        74.1913 
 236   0.0000       2.730930        74.3124 
 237   0.0000       2.743977        74.6674 
 238   0.0000       2.776759        75.5594 
 239   0.0000       2.778281        75.6009 
 240   0.0000       2.789313        75.9011 
 241   0.0000       2.806321        76.3639 
 242   0.0000       2.829769        77.0019 
 243   0.0000       2.840824        77.3028 
 244   0.0000       2.843953        77.3879 
 245   0.0000       2.851563        77.5950 
 246   0.0000       2.872536        78.1657 
 247   0.0000       2.891750        78.6885 
 248   0.0000       2.904744        79.0421 
 249   0.0000       2.924483        79.5792 
 250   0.0000       2.932534        79.7983 
 251   0.0000       2.957086        80.4664 
 252   0.0000       2.971006        80.8452 
 253   0.0000       2.987776        81.3015 
 254   0.0000       3.000880        81.6581 
 255   0.0000       3.019402        82.1621 
 256   0.0000       3.037070        82.6429 
 257   0.0000       3.044333        82.8405 
 258   0.0000       3.062015        83.3217 
 259   0.0000       3.064854        83.3989 
 260   0.0000       3.088613        84.0454 
 261   0.0000       3.100122        84.3586 
 262   0.0000       3.111354        84.6642 
 263   0.0000       3.126983        85.0895 
 264   0.0000       3.135975        85.3342 
 265   0.0000       3.143202        85.5309 
 266   0.0000       3.169196        86.2382 
 267   0.0000       3.200547        87.0913 
 268   0.0000       3.212940        87.4285 
 269   0.0000       3.220615        87.6374 
 270   0.0000       3.232934        87.9726 
 271   0.0000       3.241987        88.2190 
 272   0.0000       3.252365        88.5014 
 273   0.0000       3.266305        88.8807 
 274   0.0000       3.276700        89.1635 
 275   0.0000       3.296588        89.7047 
 276   0.0000       3.306947        89.9866 
 277   0.0000       3.336597        90.7934 
 278   0.0000       3.355797        91.3159 
 279   0.0000       3.360497        91.4438 
 280   0.0000       3.376237        91.8721 
 281   0.0000       3.391126        92.2772 
 282   0.0000       3.407306        92.7175 
 283   0.0000       3.423999        93.1717 
 284   0.0000       3.439774        93.6010 
 285   0.0000       3.445836        93.7660 
 286   0.0000       3.453064        93.9627 
 287   0.0000       3.470349        94.4330 
 288   0.0000       3.476913        94.6116 
 289   0.0000       3.484581        94.8203 
 290   0.0000       3.491704        95.0141 
 291   0.0000       3.515308        95.6564 
 292   0.0000       3.519662        95.7749 
 293   0.0000       3.556437        96.7756 
 294   0.0000       3.560082        96.8748 
 295   0.0000       3.576812        97.3300 
 296   0.0000       3.583716        97.5179 
 297   0.0000       3.588752        97.6549 
 298   0.0000       3.605059        98.0986 
 299   0.0000       3.632019        98.8323 
 300   0.0000       3.639488        99.0355 
 301   0.0000       3.644125        99.1617 
 302   0.0000       3.668418        99.8227 
 303   0.0000       3.688541       100.3703 
 304   0.0000       3.734598       101.6236 
 305   0.0000       3.750780       102.0639 
 306   0.0000       3.767336       102.5144 
 307   0.0000       3.802379       103.4680 
 308   0.0000       3.831847       104.2698 
 309   0.0000       3.872914       105.3873 
 310   0.0000       3.881667       105.6255 
 311   0.0000       3.921971       106.7222 
 312   0.0000       3.947305       107.4116 
 313   0.0000       3.996767       108.7576 
 314   0.0000       4.005073       108.9836 
 315   0.0000       4.028251       109.6143 
 316   0.0000       4.067041       110.6698 
 317   0.0000       4.126142       112.2780 
 318   0.0000       4.155517       113.0774 
 319   0.0000       4.210598       114.5762 
 320   0.0000       4.258647       115.8837 
 321   0.0000       4.269916       116.1903 
 322   0.0000       4.283484       116.5595 
 323   0.0000       4.291211       116.7698 
 324   0.0000       4.298394       116.9652 
 325   0.0000       4.326758       117.7371 
 326   0.0000       4.345170       118.2381 
 327   0.0000       4.361859       118.6922 
 328   0.0000       4.374510       119.0365 
 329   0.0000       4.403448       119.8239 
 330   0.0000       4.432209       120.6065 
 331   0.0000       4.464005       121.4717 
 332   0.0000       4.502012       122.5060 
 333   0.0000       4.536432       123.4426 
 334   0.0000       4.572967       124.4368 
 335   0.0000       4.607365       125.3728 
 336   0.0000       4.649890       126.5299 
 337   0.0000       4.748678       129.2181 
 338   0.0000       4.755421       129.4016 
 339   0.0000       4.779110       130.0462 
 340   0.0000       4.796149       130.5098 
 341   0.0000       4.962075       135.0249 
 342   0.0000       5.022604       136.6720 
 343   0.0000       5.039342       137.1275 
 344   0.0000       5.074930       138.0959 
 345   0.0000       5.174244       140.7983 
 346   0.0000       5.177205       140.8789 
 347   0.0000       5.223646       142.1426 
 348   0.0000       5.235747       142.4719 
 349   0.0000       5.271747       143.4515 
 350   0.0000       5.292705       144.0218 
 351   0.0000       5.318924       144.7353 
 352   0.0000       5.424443       147.6066 
 353   0.0000       5.456484       148.4785 
 354   0.0000       5.537027       150.6702 
 355   0.0000       5.570688       151.5861 
 356   0.0000       5.613702       152.7566 
 357   0.0000       5.668585       154.2500 
 358   0.0000       5.718411       155.6059 
 359   0.0000       5.815409       158.2453 
 360   0.0000       5.938713       161.6006 
 361   0.0000       6.129600       166.7949 
 362   0.0000       6.274328       170.7331 
 363   0.0000       6.360593       173.0805 
 364   0.0000       6.443839       175.3458 
 365   0.0000       6.478574       176.2910 
 366   0.0000       6.501418       176.9126 
 367   0.0000       6.608967       179.8391 
 368   0.0000       6.786805       184.6784 
 369   0.0000       6.797321       184.9645 
 370   0.0000       6.920352       188.3124 
 371   0.0000       6.938111       188.7956 
 372   0.0000       7.086275       192.8273 
 373   0.0000       7.192723       195.7239 
 374   0.0000       7.213275       196.2832 
 375   0.0000       9.010959       245.2006 
 376   0.0000       9.460982       257.4464 
 377   0.0000       9.627972       261.9904 
 378   0.0000      20.183728       549.2272 
 379   0.0000      22.049554       599.9989 
 380   0.0000      22.281696       606.3158 
 381   0.0000      22.765565       619.4825 
 382   0.0000      22.777945       619.8194 
 383   0.0000      22.828633       621.1987 
 384   0.0000      22.909543       623.4004 
 385   0.0000      23.266841       633.1229 
 386   0.0000      23.408522       636.9783 
 387   0.0000      43.690844      1188.8883 
 388   0.0000      43.912348      1194.9157 

                 SPIN DOWN ORBITALS
  NO   OCC          E(Eh)            E(eV) 
   0   1.0000     -88.880831     -2418.5704 
   1   1.0000     -19.287802      -524.8478 
   2   1.0000     -19.225469      -523.1516 
   3   1.0000     -10.419763      -283.5362 
   4   1.0000     -10.334186      -281.2075 
   5   1.0000     -10.314485      -280.6714 
   6   1.0000     -10.307123      -280.4711 
   7   1.0000     -10.306145      -280.4445 
   8   1.0000     -10.302522      -280.3459 
   9   1.0000     -10.297573      -280.2112 
  10   1.0000     -10.296394      -280.1791 
  11   1.0000      -8.059528      -219.3109 
  12   1.0000      -6.015797      -163.6981 
  13   1.0000      -6.011508      -163.5815 
  14   1.0000      -6.006569      -163.4470 
  15   1.0000      -1.231914       -33.5221 
  16   1.0000      -1.104582       -30.0572 
  17   1.0000      -1.034354       -28.1462 
  18   1.0000      -0.966776       -26.3073 
  19   1.0000      -0.911431       -24.8013 
  20   1.0000      -0.902976       -24.5712 
  21   1.0000      -0.816912       -22.2293 
  22   1.0000      -0.763896       -20.7867 
  23   1.0000      -0.741437       -20.1755 
  24   1.0000      -0.700729       -19.0678 
  25   1.0000      -0.633421       -17.2363 
  26   1.0000      -0.614940       -16.7334 
  27   1.0000      -0.595174       -16.1955 
  28   1.0000      -0.584264       -15.8986 
  29   1.0000      -0.579047       -15.7567 
  30   1.0000      -0.566778       -15.4228 
  31   1.0000      -0.560311       -15.2468 
  32   1.0000      -0.556505       -15.1433 
  33   1.0000      -0.534294       -14.5389 
  34   1.0000      -0.516709       -14.0604 
  35   1.0000      -0.493757       -13.4358 
  36   1.0000      -0.473870       -12.8947 
  37   1.0000      -0.440992       -12.0000 
  38   1.0000      -0.430615       -11.7176 
  39   1.0000      -0.416653       -11.3377 
  40   1.0000      -0.398761       -10.8508 
  41   1.0000      -0.376193       -10.2367 
  42   1.0000      -0.320977        -8.7342 
  43   0.0000      -0.088891        -2.4188 
  44   0.0000       0.023485         0.6390 
  45   0.0000       0.045613         1.2412 
  46   0.0000       0.089479         2.4348 
  47   0.0000       0.111162         3.0249 
  48   0.0000       0.116116         3.1597 
  49   0.0000       0.140390         3.8202 
  50   0.0000       0.149039         4.0555 
  51   0.0000       0.160118         4.3570 
  52   0.0000       0.166226         4.5232 
  53   0.0000       0.168941         4.5971 
  54   0.0000       0.173684         4.7262 
  55   0.0000       0.195620         5.3231 
  56   0.0000       0.209089         5.6896 
  57   0.0000       0.212392         5.7795 
  58   0.0000       0.216998         5.9048 
  59   0.0000       0.241243         6.5646 
  60   0.0000       0.254573         6.9273 
  61   0.0000       0.263103         7.1594 
  62   0.0000       0.283613         7.7175 
  63   0.0000       0.285084         7.7575 
  64   0.0000       0.289561         7.8794 
  65   0.0000       0.306282         8.3343 
  66   0.0000       0.309620         8.4252 
  67   0.0000       0.315551         8.5866 
  68   0.0000       0.320717         8.7272 
  69   0.0000       0.327822         8.9205 
  70   0.0000       0.333404         9.0724 
  71   0.0000       0.357499         9.7280 
  72   0.0000       0.360443         9.8082 
  73   0.0000       0.373185        10.1549 
  74   0.0000       0.384967        10.4755 
  75   0.0000       0.394055        10.7228 
  76   0.0000       0.401306        10.9201 
  77   0.0000       0.416744        11.3402 
  78   0.0000       0.422029        11.4840 
  79   0.0000       0.426601        11.6084 
  80   0.0000       0.437291        11.8993 
  81   0.0000       0.441397        12.0110 
  82   0.0000       0.450454        12.2575 
  83   0.0000       0.464657        12.6440 
  84   0.0000       0.475883        12.9494 
  85   0.0000       0.485612        13.2142 
  86   0.0000       0.486672        13.2430 
  87   0.0000       0.495992        13.4966 
  88   0.0000       0.502278        13.6677 
  89   0.0000       0.508864        13.8469 
  90   0.0000       0.513060        13.9611 
  91   0.0000       0.523261        14.2387 
  92   0.0000       0.538742        14.6599 
  93   0.0000       0.543814        14.7979 
  94   0.0000       0.547764        14.9054 
  95   0.0000       0.557292        15.1647 
  96   0.0000       0.561960        15.2917 
  97   0.0000       0.587029        15.9739 
  98   0.0000       0.591919        16.1069 
  99   0.0000       0.606172        16.4948 
 100   0.0000       0.622056        16.9270 
 101   0.0000       0.632928        17.2228 
 102   0.0000       0.649184        17.6652 
 103   0.0000       0.653141        17.7729 
 104   0.0000       0.660683        17.9781 
 105   0.0000       0.669457        18.2168 
 106   0.0000       0.672331        18.2951 
 107   0.0000       0.697197        18.9717 
 108   0.0000       0.710187        19.3252 
 109   0.0000       0.719564        19.5803 
 110   0.0000       0.739975        20.1357 
 111   0.0000       0.745573        20.2881 
 112   0.0000       0.763780        20.7835 
 113   0.0000       0.772562        21.0225 
 114   0.0000       0.775404        21.0998 
 115   0.0000       0.792788        21.5729 
 116   0.0000       0.810429        22.0529 
 117   0.0000       0.825131        22.4530 
 118   0.0000       0.840306        22.8659 
 119   0.0000       0.845734        23.0136 
 120   0.0000       0.853086        23.2136 
 121   0.0000       0.866702        23.5842 
 122   0.0000       0.879770        23.9398 
 123   0.0000       0.900833        24.5129 
 124   0.0000       0.918298        24.9881 
 125   0.0000       0.928684        25.2708 
 126   0.0000       0.933917        25.4132 
 127   0.0000       0.938277        25.5318 
 128   0.0000       0.965998        26.2861 
 129   0.0000       0.991001        26.9665 
 130   0.0000       0.997354        27.1394 
 131   0.0000       1.011175        27.5155 
 132   0.0000       1.026656        27.9367 
 133   0.0000       1.033039        28.1104 
 134   0.0000       1.047571        28.5059 
 135   0.0000       1.050761        28.5927 
 136   0.0000       1.071535        29.1579 
 137   0.0000       1.086873        29.5753 
 138   0.0000       1.103335        30.0233 
 139   0.0000       1.117332        30.4041 
 140   0.0000       1.124746        30.6059 
 141   0.0000       1.160761        31.5859 
 142   0.0000       1.210612        32.9424 
 143   0.0000       1.233161        33.5560 
 144   0.0000       1.241667        33.7875 
 145   0.0000       1.257817        34.2269 
 146   0.0000       1.290090        35.1051 
 147   0.0000       1.300754        35.3953 
 148   0.0000       1.317400        35.8483 
 149   0.0000       1.326679        36.1008 
 150   0.0000       1.341145        36.4944 
 151   0.0000       1.344731        36.5920 
 152   0.0000       1.380995        37.5788 
 153   0.0000       1.388753        37.7899 
 154   0.0000       1.417258        38.5655 
 155   0.0000       1.430331        38.9213 
 156   0.0000       1.445009        39.3207 
 157   0.0000       1.460387        39.7392 
 158   0.0000       1.513526        41.1851 
 159   0.0000       1.528543        41.5938 
 160   0.0000       1.541554        41.9478 
 161   0.0000       1.563861        42.5548 
 162   0.0000       1.573433        42.8153 
 163   0.0000       1.578526        42.9539 
 164   0.0000       1.587810        43.2065 
 165   0.0000       1.600229        43.5444 
 166   0.0000       1.601398        43.5763 
 167   0.0000       1.607720        43.7483 
 168   0.0000       1.617018        44.0013 
 169   0.0000       1.636796        44.5395 
 170   0.0000       1.642211        44.6868 
 171   0.0000       1.649375        44.8818 
 172   0.0000       1.652468        44.9659 
 173   0.0000       1.674350        45.5614 
 174   0.0000       1.684450        45.8362 
 175   0.0000       1.692416        46.0530 
 176   0.0000       1.704070        46.3701 
 177   0.0000       1.714759        46.6610 
 178   0.0000       1.740562        47.3631 
 179   0.0000       1.755501        47.7696 
 180   0.0000       1.769004        48.1370 
 181   0.0000       1.777201        48.3601 
 182   0.0000       1.784139        48.5489 
 183   0.0000       1.792446        48.7749 
 184   0.0000       1.811710        49.2991 
 185   0.0000       1.827816        49.7374 
 186   0.0000       1.863834        50.7175 
 187   0.0000       1.878904        51.1276 
 188   0.0000       1.899818        51.6967 
 189   0.0000       1.914562        52.0979 
 190   0.0000       1.927351        52.4459 
 191   0.0000       1.933482        52.6127 
 192   0.0000       1.942600        52.8608 
 193   0.0000       1.951236        53.0958 
 194   0.0000       1.960056        53.3358 
 195   0.0000       1.969751        53.5997 
 196   0.0000       1.991315        54.1864 
 197   0.0000       2.006033        54.5869 
 198   0.0000       2.010091        54.6974 
 199   0.0000       2.053962        55.8912 
 200   0.0000       2.062767        56.1308 
 201   0.0000       2.108853        57.3848 
 202   0.0000       2.125117        57.8274 
 203   0.0000       2.147056        58.4244 
 204   0.0000       2.154473        58.6262 
 205   0.0000       2.164399        58.8963 
 206   0.0000       2.180020        59.3214 
 207   0.0000       2.185866        59.4804 
 208   0.0000       2.195059        59.7306 
 209   0.0000       2.226550        60.5875 
 210   0.0000       2.245828        61.1121 
 211   0.0000       2.259533        61.4850 
 212   0.0000       2.269392        61.7533 
 213   0.0000       2.280425        62.0535 
 214   0.0000       2.305580        62.7380 
 215   0.0000       2.325740        63.2866 
 216   0.0000       2.331475        63.4427 
 217   0.0000       2.356411        64.1212 
 218   0.0000       2.382734        64.8375 
 219   0.0000       2.392927        65.1149 
 220   0.0000       2.425854        66.0108 
 221   0.0000       2.446000        66.5590 
 222   0.0000       2.454986        66.8036 
 223   0.0000       2.497664        67.9649 
 224   0.0000       2.500056        68.0300 
 225   0.0000       2.515087        68.4390 
 226   0.0000       2.543961        69.2247 
 227   0.0000       2.614796        71.1522 
 228   0.0000       2.624256        71.4096 
 229   0.0000       2.631726        71.6129 
 230   0.0000       2.660859        72.4057 
 231   0.0000       2.676869        72.8413 
 232   0.0000       2.681610        72.9703 
 233   0.0000       2.697806        73.4110 
 234   0.0000       2.708138        73.6922 
 235   0.0000       2.728093        74.2352 
 236   0.0000       2.736344        74.4597 
 237   0.0000       2.761530        75.1450 
 238   0.0000       2.779528        75.6348 
 239   0.0000       2.780779        75.6688 
 240   0.0000       2.791137        75.9507 
 241   0.0000       2.806952        76.3811 
 242   0.0000       2.831936        77.0609 
 243   0.0000       2.842620        77.3516 
 244   0.0000       2.845493        77.4298 
 245   0.0000       2.852732        77.6268 
 246   0.0000       2.873857        78.2016 
 247   0.0000       2.892677        78.7137 
 248   0.0000       2.905201        79.0545 
 249   0.0000       2.924642        79.5836 
 250   0.0000       2.933274        79.8184 
 251   0.0000       2.958041        80.4924 
 252   0.0000       2.971775        80.8661 
 253   0.0000       2.994257        81.4779 
 254   0.0000       3.002799        81.7103 
 255   0.0000       3.022009        82.2330 
 256   0.0000       3.041540        82.7645 
 257   0.0000       3.044733        82.8514 
 258   0.0000       3.063661        83.3664 
 259   0.0000       3.068716        83.5040 
 260   0.0000       3.090124        84.0866 
 261   0.0000       3.103501        84.4506 
 262   0.0000       3.112801        84.7036 
 263   0.0000       3.127969        85.1164 
 264   0.0000       3.136996        85.3620 
 265   0.0000       3.143231        85.5317 
 266   0.0000       3.169823        86.2553 
 267   0.0000       3.201446        87.1158 
 268   0.0000       3.216550        87.5268 
 269   0.0000       3.222509        87.6889 
 270   0.0000       3.236436        88.0679 
 271   0.0000       3.244944        88.2994 
 272   0.0000       3.252836        88.5142 
 273   0.0000       3.268613        88.9435 
 274   0.0000       3.281086        89.2829 
 275   0.0000       3.302574        89.8676 
 276   0.0000       3.315093        90.2083 
 277   0.0000       3.338258        90.8386 
 278   0.0000       3.357367        91.3586 
 279   0.0000       3.363896        91.5363 
 280   0.0000       3.380577        91.9902 
 281   0.0000       3.391835        92.2965 
 282   0.0000       3.409072        92.7656 
 283   0.0000       3.426156        93.2304 
 284   0.0000       3.441882        93.6584 
 285   0.0000       3.450046        93.8805 
 286   0.0000       3.454273        93.9955 
 287   0.0000       3.471815        94.4729 
 288   0.0000       3.477735        94.6340 
 289   0.0000       3.485058        94.8333 
 290   0.0000       3.498141        95.1893 
 291   0.0000       3.516382        95.6856 
 292   0.0000       3.523403        95.8767 
 293   0.0000       3.557165        96.7954 
 294   0.0000       3.561136        96.9034 
 295   0.0000       3.578466        97.3750 
 296   0.0000       3.584738        97.5457 
 297   0.0000       3.590453        97.7012 
 298   0.0000       3.605859        98.1204 
 299   0.0000       3.632651        98.8495 
 300   0.0000       3.642356        99.1135 
 301   0.0000       3.644196        99.1636 
 302   0.0000       3.668657        99.8292 
 303   0.0000       3.689293       100.3908 
 304   0.0000       3.735232       101.6408 
 305   0.0000       3.751358       102.0796 
 306   0.0000       3.767568       102.5207 
 307   0.0000       3.803078       103.4870 
 308   0.0000       3.833328       104.3102 
[...]
      f-1     :     0.001277
      f+2     :     0.004120
      f-2     :     0.001758
      f+3     :     0.003374
      f-3     :     0.003004
  1 S s       :     5.200710  s :     5.200710
      pz      :     3.347075  p :     9.883534
      px      :     3.297942
      py      :     3.238516
      dz2     :     0.037136  d :     0.283504
      dxz     :     0.061247
      dyz     :     0.065415
      dx2y2   :     0.072608
      dxy     :     0.047098
      f0      :     0.003991  f :     0.045457
      f+1     :     0.005439
      f-1     :     0.004814
      f+2     :     0.009341
      f-2     :     0.007240
      f+3     :     0.007859
      f-3     :     0.006773
  2 C s       :     2.770056  s :     2.770056
      pz      :     0.916911  p :     2.960822
      px      :     1.068505
      py      :     0.975406
      dz2     :     0.086728  d :     0.564146
      dxz     :     0.107227
      dyz     :     0.089953
      dx2y2   :     0.157879
      dxy     :     0.122360
      f0      :     0.005769  f :     0.055170
      f+1     :     0.006595
      f-1     :     0.005583
      f+2     :     0.006639
      f-2     :     0.009291
      f+3     :     0.013671
      f-3     :     0.007623
  3 C s       :     2.756361  s :     2.756361
      pz      :     0.954205  p :     2.964173
      px      :     0.998310
      py      :     1.011657
      dz2     :     0.038072  d :     0.378369
      dxz     :     0.079727
      dyz     :     0.055138
      dx2y2   :     0.095121
      dxy     :     0.110310
      f0      :     0.004754  f :     0.042950
      f+1     :     0.002399
      f-1     :     0.005821
      f+2     :     0.005783
      f-2     :     0.007108
      f+3     :     0.010804
      f-3     :     0.006280
  4 C s       :     2.753404  s :     2.753404
      pz      :     0.918315  p :     2.883298
      px      :     0.986215
      py      :     0.978768
      dz2     :     0.083547  d :     0.390547
      dxz     :     0.050910
      dyz     :     0.063428
      dx2y2   :     0.082793
      dxy     :     0.109869
      f0      :     0.003302  f :     0.044023
      f+1     :     0.006130
      f-1     :     0.005788
      f+2     :     0.006998
      f-2     :     0.007233
      f+3     :     0.008018
      f-3     :     0.006555
  5 C s       :     2.701357  s :     2.701357
      pz      :     0.930929  p :     2.904574
      px      :     1.028666
      py      :     0.944980
      dz2     :     0.057529  d :     0.485291
      dxz     :     0.096124
      dyz     :     0.078163
      dx2y2   :     0.139841
      dxy     :     0.113634
      f0      :     0.005937  f :     0.055711
      f+1     :     0.005766
      f-1     :     0.005141
      f+2     :     0.008013
      f-2     :     0.009361
      f+3     :     0.014330
      f-3     :     0.007163
  6 C s       :     2.753234  s :     2.753234
      pz      :     0.906774  p :     2.887292
      px      :     0.992720
      py      :     0.987798
      dz2     :     0.040310  d :     0.389002
      dxz     :     0.083560
      dyz     :     0.059142
      dx2y2   :     0.098954
      dxy     :     0.107035
      f0      :     0.005058  f :     0.044112
      f+1     :     0.002332
      f-1     :     0.006220
      f+2     :     0.005867
      f-2     :     0.007254
      f+3     :     0.011170
      f-3     :     0.006213
  7 C s       :     2.758795  s :     2.758795
      pz      :     0.963701  p :     2.954681
      px      :     0.983684
      py      :     1.007296
      dz2     :     0.070109  d :     0.380589
      dxz     :     0.052839
      dyz     :     0.065542
      dx2y2   :     0.081760
      dxy     :     0.110339
      f0      :     0.003425  f :     0.043082
      f+1     :     0.005314
      f-1     :     0.005769
      f+2     :     0.007172
      f-2     :     0.007390
      f+3     :     0.007965
      f-3     :     0.006047
  8 C s       :     2.755380  s :     2.755380
      pz      :     0.795955  p :     2.615767
      px      :     0.895976
      py      :     0.923836
      dz2     :     0.137765  d :     0.988263
      dxz     :     0.211495
      dyz     :     0.128121
      dx2y2   :     0.274041
      dxy     :     0.236841
      f0      :     0.016827  f :     0.154182
      f+1     :     0.021982
      f-1     :     0.011123
      f+2     :     0.014846
      f-2     :     0.027866
      f+3     :     0.037609
      f-3     :     0.023928
  9 O s       :     3.442973  s :     3.442973
      pz      :     1.449472  p :     4.288478
      px      :     1.368209
      py      :     1.470796
      dz2     :     0.008038  d :     0.063633
      dxz     :     0.011313
      dyz     :     0.004047
      dx2y2   :     0.017762
      dxy     :     0.022473
      f0      :     0.000506  f :     0.005429
      f+1     :     0.000719
      f-1     :     0.000299
      f+2     :     0.000199
      f-2     :     0.000711
      f+3     :     0.001504
      f-3     :     0.001490
 10 O s       :     3.443571  s :     3.443571
      pz      :     1.513905  p :     4.285098
      px      :     1.322560
      py      :     1.448633
      dz2     :     0.008618  d :     0.063607
      dxz     :     0.017399
      dyz     :     0.009559
      dx2y2   :     0.013684
      dxy     :     0.014347
      f0      :     0.000479  f :     0.005422
      f+1     :     0.000801
      f-1     :     0.000297
      f+2     :     0.001078
      f-2     :     0.001162
      f+3     :     0.000875
      f-3     :     0.000730
 11 H s       :     0.817187  s :     0.817187
      pz      :     0.020478  p :     0.064059
      px      :     0.013136
      py      :     0.030445
 12 H s       :     0.825261  s :     0.825261
      pz      :     0.023414  p :     0.064444
      px      :     0.013355
      py      :     0.027675
 13 H s       :     0.826447  s :     0.826447
      pz      :     0.022218  p :     0.064440
      px      :     0.028152
      py      :     0.014070
 14 H s       :     0.792326  s :     0.792326
      pz      :     0.020177  p :     0.060486
      px      :     0.025440
      py      :     0.014869
 15 H s       :     0.782746  s :     0.782746
      pz      :     0.011447  p :     0.059059
      px      :     0.030156
      py      :     0.017457
 16 H s       :     0.782431  s :     0.782431
      pz      :     0.019233  p :     0.059098
      px      :     0.025191
      py      :     0.014674
 17 H s       :     0.792288  s :     0.792288
      pz      :     0.012155  p :     0.058915
      px      :     0.029941
      py      :     0.016819

SPIN
  0 C s       :     0.000008  s :     0.000008
      pz      :     0.000019  p :     0.000051
      px      :     0.000025
      py      :     0.000008
      dz2     :    -0.000011  d :    -0.000093
      dxz     :    -0.000038
      dyz     :    -0.000008
      dx2y2   :    -0.000020
      dxy     :    -0.000016
      f0      :    -0.000000  f :    -0.000005
      f+1     :    -0.000003
      f-1     :     0.000000
      f+2     :    -0.000000
      f-2     :    -0.000000
      f+3     :    -0.000000
      f-3     :    -0.000001
  1 S s       :    -0.000016  s :    -0.000016
      pz      :    -0.000548  p :    -0.000891
      px      :    -0.000106
      py      :    -0.000237
      dz2     :    -0.000084  d :    -0.000216
      dxz     :    -0.000019
      dyz     :    -0.000050
      dx2y2   :    -0.000071
      dxy     :     0.000008
      f0      :    -0.000000  f :    -0.000030
      f+1     :    -0.000001
      f-1     :    -0.000021
      f+2     :     0.000001
      f-2     :    -0.000004
      f+3     :     0.000001
      f-3     :    -0.000006
  2 C s       :    -0.000106  s :    -0.000106
      pz      :    -0.001674  p :    -0.002778
      px      :    -0.000259
      py      :    -0.000845
      dz2     :     0.000114  d :     0.000416
      dxz     :     0.000108
      dyz     :     0.000029
      dx2y2   :     0.000064
      dxy     :     0.000101
      f0      :     0.000007  f :     0.000060
      f+1     :     0.000013
      f-1     :     0.000001
      f+2     :     0.000007
      f-2     :     0.000012
      f+3     :     0.000017
      f-3     :     0.000004
  3 C s       :     0.000169  s :     0.000169
      pz      :     0.001069  p :     0.002061
      px      :     0.000231
      py      :     0.000761
      dz2     :    -0.000148  d :    -0.000701
      dxz     :    -0.000191
      dyz     :    -0.000084
      dx2y2   :    -0.000202
      dxy     :    -0.000076
      f0      :    -0.000015  f :    -0.000087
      f+1     :    -0.000002
      f-1     :    -0.000024
      f+2     :    -0.000006
      f-2     :    -0.000010
      f+3     :    -0.000022
      f-3     :    -0.000009
  4 C s       :     0.000799  s :     0.000799
      pz      :    -0.001172  p :    -0.000598
      px      :    -0.000288
      py      :     0.000861
      dz2     :     0.000218  d :     0.000716
      dxz     :     0.000006
      dyz     :     0.000297
      dx2y2   :     0.000300
      dxy     :    -0.000104
      f0      :     0.000003  f :     0.000015
      f+1     :     0.000015
      f-1     :     0.000010
      f+2     :     0.000006
      f-2     :    -0.000012
      f+3     :    -0.000016
      f-3     :     0.000008
  5 C s       :    -0.000917  s :    -0.000917
      pz      :     0.001078  p :     0.002401
      px      :     0.001916
      py      :    -0.000594
      dz2     :    -0.000819  d :    -0.001605
      dxz     :    -0.000053
      dyz     :    -0.000621
      dx2y2   :    -0.000359
      dxy     :     0.000247
      f0      :    -0.000013  f :     0.000187
      f+1     :    -0.000027
      f-1     :    -0.000061
      f+2     :     0.000026
      f-2     :     0.000108
      f+3     :     0.000194
      f-3     :    -0.000040
  6 C s       :     0.000809  s :     0.000809
      pz      :    -0.000875  p :    -0.000199
      px      :    -0.000393
      py      :     0.001069
      dz2     :     0.000046  d :     0.000729
      dxz     :     0.000072
      dyz     :     0.000355
      dx2y2   :     0.000388
      dxy     :    -0.000131
      f0      :     0.000009  f :     0.000015
      f+1     :     0.000001
      f-1     :     0.000006
      f+2     :    -0.000003
      f-2     :     0.000004
      f+3     :    -0.000004
      f-3     :     0.000002
  7 C s       :     0.000170  s :     0.000170
      pz      :     0.001081  p :     0.002072
      px      :     0.000225
      py      :     0.000766
      dz2     :    -0.000369  d :    -0.000628
      dxz     :    -0.000046
      dyz     :     0.000019
      dx2y2   :    -0.000049
      dxy     :    -0.000184
      f0      :    -0.000002  f :    -0.000083
      f+1     :    -0.000027
      f-1     :    -0.000018
      f+2     :    -0.000006
      f-2     :    -0.000005
      f+3     :    -0.000005
      f-3     :    -0.000020
  8 C s       :    -0.005526  s :    -0.005526
      pz      :    -0.014594  p :    -0.027649
      px      :     0.001636
      py      :    -0.014691
      dz2     :     0.002017  d :     0.016789
      dxz     :     0.003014
      dyz     :     0.000867
      dx2y2   :    -0.010554
      dxy     :     0.021446
      f0      :     0.001534  f :     0.040815
      f+1     :     0.001006
      f-1     :     0.002505
      f+2     :     0.004721
      f-2     :     0.009793
      f+3     :     0.021072
      f-3     :     0.000185
  9 O s       :     0.005712  s :     0.005712
      pz      :     0.151536  p :     0.476414
      px      :     0.208851
      py      :     0.116027
      dz2     :    -0.000174  d :     0.000350
      dxz     :     0.000270
      dyz     :    -0.000072
      dx2y2   :     0.000213
      dxy     :     0.000113
      f0      :     0.000008  f :    -0.000011
      f+1     :    -0.000012
      f-1     :    -0.000007
      f+2     :    -0.000000
      f-2     :     0.000015
      f+3     :     0.000067
      f-3     :    -0.000082
 10 O s       :     0.005762  s :     0.005762
      pz      :     0.013535  p :     0.483452
      px      :     0.306651
      py      :     0.163267
      dz2     :    -0.000125  d :     0.000355
      dxz     :    -0.000345
      dyz     :     0.000079
      dx2y2   :     0.000495
      dxy     :     0.000250
      f0      :     0.000001  f :    -0.000011
      f+1     :    -0.000032
      f-1     :     0.000006
      f+2     :     0.000043
      f-2     :    -0.000040
      f+3     :     0.000058
      f-3     :    -0.000047
 11 H s       :     0.000002  s :     0.000002
      pz      :     0.000001  p :     0.000002
      px      :     0.000001
      py      :     0.000000
 12 H s       :    -0.000029  s :    -0.000029
      pz      :     0.000001  p :     0.000002
      px      :     0.000001
      py      :     0.000001
 13 H s       :    -0.000029  s :    -0.000029
      pz      :     0.000000  p :     0.000002
      px      :     0.000001
      py      :     0.000000
 14 H s       :    -0.000088  s :    -0.000088
      pz      :     0.000025  p :     0.000052
      px      :     0.000010
      py      :     0.000016
 15 H s       :     0.000840  s :     0.000840
      pz      :    -0.000046  p :     0.000127
      px      :     0.000109
      py      :     0.000065
 16 H s       :     0.000842  s :     0.000842
      pz      :     0.000052  p :     0.000137
      px      :     0.000056
      py      :     0.000029
 17 H s       :    -0.000093  s :    -0.000093
      pz      :     0.000024  p :     0.000052
      px      :     0.000010
      py      :     0.000017


                      *****************************
                      * MAYER POPULATION ANALYSIS *
                      *****************************

  NA   - Mulliken gross atomic population
  ZA   - Total nuclear charge
  QA   - Mulliken gross atomic charge
  VA   - Mayer's total valence
  BVA  - Mayer's bonded valence
  FA   - Mayer's free valence

  ATOM       NA         ZA         QA         VA         BVA        FA
  0 C      6.3888     6.0000    -0.3888     3.9673     3.9673     0.0000
  1 S     15.9947    16.0000     0.0053     2.4177     2.4177     0.0000
  2 C      5.8668     6.0000     0.1332     3.9405     3.9405     0.0000
  3 C      6.1857     6.0000    -0.1857     3.8666     3.8665     0.0000
  4 C      6.2055     6.0000    -0.2055     4.0324     4.0323     0.0001
  5 C      5.9786     6.0000     0.0214     3.6488     3.6484     0.0004
  6 C      6.1925     6.0000    -0.1925     4.0077     4.0076     0.0001
  7 C      6.1394     6.0000    -0.1394     3.8767     3.8767     0.0000
  8 C      5.6449     6.0000     0.3551     4.3848     4.3781     0.0067
  9 O      8.2214     8.0000    -0.2214     2.3393     2.0743     0.2650
 10 O      8.2184     8.0000    -0.2184     2.3403     2.0676     0.2727
 11 H      0.8403     1.0000     0.1597     0.9691     0.9691     0.0000
 12 H      0.8522     1.0000     0.1478     0.9590     0.9590     0.0000
 13 H      0.8542     1.0000     0.1458     0.9577     0.9577     0.0000
 14 H      0.8619     1.0000     0.1381     0.9723     0.9723     0.0000
 15 H      0.8460     1.0000     0.1540     0.9789     0.9789     0.0000
 16 H      0.8454     1.0000     0.1546     0.9767     0.9767     0.0000
 17 H      0.8632     1.0000     0.1368     0.9774     0.9774    -0.0000

  Mayer bond orders larger than 0.100000
B(  0-C ,  1-S ) :   1.0718 B(  0-C , 11-H ) :   0.9583 B(  0-C , 12-H ) :   0.9599 
B(  0-C , 13-H ) :   0.9594 B(  1-S ,  2-C ) :   1.2124 B(  2-C ,  3-C ) :   1.3097 
B(  2-C ,  7-C ) :   1.3143 B(  3-C ,  4-C ) :   1.4501 B(  3-C , 14-H ) :   0.9608 
B(  4-C ,  5-C ) :   1.3908 B(  4-C , 15-H ) :   0.9463 B(  5-C ,  6-C ) :   1.3479 
B(  5-C ,  8-C ) :   0.9940 B(  6-C ,  7-C ) :   1.4876 B(  6-C , 16-H ) :   0.9560 
B(  7-C , 17-H ) :   0.9693 B(  8-C ,  9-O ) :   1.6844 B(  8-C , 10-O ) :   1.6783 
B(  9-O , 10-O ) :   0.3855 

-------
TIMINGS
-------

Total SCF time: 0 days 0 hours 1 min 9 sec 

Total time                  ....      69.616 sec
Sum of individual times     ....      67.879 sec  ( 97.5%)

Fock matrix formation       ....      65.505 sec  ( 94.1%)
  Split-RI-J                ....       2.688 sec  (  4.1% of F)
  Chain of spheres X        ....      46.009 sec  ( 70.2% of F)
  XC integration            ....      15.781 sec  ( 24.1% of F)
    Basis function eval.    ....       1.320 sec  (  8.4% of XC)
    Density eval.           ....       2.143 sec  ( 13.6% of XC)
    XC-Functional eval.     ....       7.947 sec  ( 50.4% of XC)
    XC-Potential eval.      ....       1.550 sec  (  9.8% of XC)
Diagonalization             ....       0.698 sec  (  1.0%)
Density matrix formation    ....       0.033 sec  (  0.0%)
Population analysis         ....       0.105 sec  (  0.2%)
Initial guess               ....       0.076 sec  (  0.1%)
Orbital Transformation      ....       0.000 sec  (  0.0%)
Orbital Orthonormalization  ....       0.060 sec  (  0.1%)
DIIS solution               ....       0.396 sec  (  0.6%)
Grid generation             ....       1.064 sec  (  1.5%)

Maximum memory used throughout the entire SCF-calculation: 94.4 MB

-------------------------   --------------------
FINAL SINGLE POINT ENERGY      -857.640449065080
-------------------------   --------------------

                                *** OPTIMIZATION RUN DONE ***

                            ***************************************
                            *     ORCA property calculations      *
                            ***************************************

                                    ---------------------
                                    Active property flags
                                    ---------------------
   (+) Dipole Moment


------------------------------------------------------------------------------
                       ORCA ELECTRIC PROPERTIES CALCULATION
------------------------------------------------------------------------------

Dipole Moment Calculation                       ... on
Quadrupole Moment Calculation                   ... off
Polarizability Calculation                      ... off
GBWName                                         ... /burg/berkelbach/users/eav2136/projects/peroxide_dissociation/05_range_separated_functional/wb97x-v-radical/wb97x-v-radical_opt.gbw
Electron density                                ... /burg/berkelbach/users/eav2136/projects/peroxide_dissociation/05_range_separated_functional/wb97x-v-radical/wb97x-v-radical_opt.scfp
The origin for moment calculation is the CENTER OF MASS  = ( 1.620796,  6.641292  2.131388)

-------------
DIPOLE MOMENT
-------------
                                X             Y             Z
Electronic contribution:      2.75676      -6.61863      -5.85839
Nuclear contribution   :     -3.04972       8.18997       7.06672
                        -----------------------------------------
Total Dipole Moment    :     -0.29296       1.57135       1.20833
                        -----------------------------------------
Magnitude (a.u.)       :      2.00375
Magnitude (Debye)      :      5.09313



--------------------
Rotational spectrum 
--------------------
 
Rotational constants in cm-1:     0.107293     0.015074     0.013254 
Rotational constants in MHz :  3216.564568   451.900246   397.341514 

 Dipole components along the rotational axes: 
x,y,z [a.u.] :     1.963662     0.398677     0.010138 
x,y,z [Debye]:     4.991232     1.013356     0.025768 

 

Timings for individual modules:

Sum of individual times         ...     2704.803 sec (=  45.080 min)
GTO integral calculation        ...       90.446 sec (=   1.507 min)   3.3 %
SCF iterations                  ...     2080.399 sec (=  34.673 min)  76.9 %
SCF Gradient evaluation         ...      466.382 sec (=   7.773 min)  17.2 %
Geometry relaxation             ...       67.576 sec (=   1.126 min)   2.5 %
                             ****ORCA TERMINATED NORMALLY****
TOTAL RUN TIME: 0 days 0 hours 47 minutes 27 seconds 553 msec
