Job execution start: Fri Apr 22 11:44:34 EDT 2022
Shared library path: /cm/shared/apps/cuda11.0/toolkit/11.0.3/compat:/burg/berkelbach/users/eav2136/builds/orca/5.0.3/orca:/cm/shared/apps/ucx/1.8.1/lib64:/cm/local/apps/cuda/libs/current/lib64:/cm/shared/apps/cuda11.0/toolkit/11.0.3/targets/x86_64-linux/lib:/cm/shared/apps/cuda11.0/visual-tools/11.0.3/libnvvp:/burg/opt/openmpi-4.1.1_ucx_cuda_11.0.3_support/lib:/cm/shared/apps/slurm/current/lib64/slurm:/cm/shared/apps/slurm/current/lib64
Slurm Job ID is: 1845663
Slurm Job name is: wb97x-v-peroxide_opt
g067

                                 *****************
                                 * O   R   C   A *
                                 *****************

                                            #,                                       
                                            ###                                      
                                            ####                                     
                                            #####                                    
                                            ######                                   
                                           ########,                                 
                                     ,,################,,,,,                         
                               ,,#################################,,                 
                          ,,##########################################,,             
                       ,#########################################, ''#####,          
                    ,#############################################,,   '####,        
                  ,##################################################,,,,####,       
                ,###########''''           ''''###############################       
              ,#####''   ,,,,##########,,,,          '''####'''          '####       
            ,##' ,,,,###########################,,,                        '##       
           ' ,,###''''                  '''############,,,                           
         ,,##''                                '''############,,,,        ,,,,,,###''
      ,#''                                            '''#######################'''  
     '                                                          ''''####''''         
             ,#######,   #######,   ,#######,      ##                                
            ,#'     '#,  ##    ##  ,#'     '#,    #''#        ######   ,####,        
            ##       ##  ##   ,#'  ##            #'  '#       #        #'  '#        
            ##       ##  #######   ##           ,######,      #####,   #    #        
            '#,     ,#'  ##    ##  '#,     ,#' ,#      #,         ##   #,  ,#        
             '#######'   ##     ##  '#######'  #'      '#     #####' # '####'        



                  #######################################################
                  #                        -***-                        #
                  #          Department of theory and spectroscopy      #
                  #    Directorship and core code : Frank Neese         #
                  #        Max Planck Institute fuer Kohlenforschung    #
                  #                Kaiser Wilhelm Platz 1               #
                  #                 D-45470 Muelheim/Ruhr               #
                  #                      Germany                        #
                  #                                                     #
                  #                  All rights reserved                #
                  #                        -***-                        #
                  #######################################################


                         Program Version 5.0.3 -  RELEASE  -


 With contributions from (in alphabetic order):
   Daniel Aravena         : Magnetic Suceptibility
   Michael Atanasov       : Ab Initio Ligand Field Theory (pilot matlab implementation)
   Alexander A. Auer      : GIAO ZORA, VPT2 properties, NMR spectrum
   Ute Becker             : Parallelization
   Giovanni Bistoni       : ED, misc. LED, open-shell LED, HFLD
   Martin Brehm           : Molecular dynamics
   Dmytro Bykov           : SCF Hessian
   Vijay G. Chilkuri      : MRCI spin determinant printing, contributions to CSF-ICE
   Dipayan Datta          : RHF DLPNO-CCSD density
   Achintya Kumar Dutta   : EOM-CC, STEOM-CC
   Dmitry Ganyushin       : Spin-Orbit,Spin-Spin,Magnetic field MRCI
   Miquel Garcia          : C-PCM and meta-GGA Hessian, CC/C-PCM, Gaussian charge scheme
   Yang Guo               : DLPNO-NEVPT2, F12-NEVPT2, CIM, IAO-localization
   Andreas Hansen         : Spin unrestricted coupled pair/coupled cluster methods
   Benjamin Helmich-Paris : MC-RPA, TRAH-SCF, COSX integrals
   Lee Huntington         : MR-EOM, pCC
   Robert Izsak           : Overlap fitted RIJCOSX, COSX-SCS-MP3, EOM
   Marcus Kettner         : VPT2
   Christian Kollmar      : KDIIS, OOCD, Brueckner-CCSD(T), CCSD density, CASPT2, CASPT2-K
   Simone Kossmann        : Meta GGA functionals, TD-DFT gradient, OOMP2, MP2 Hessian
   Martin Krupicka        : Initial AUTO-CI
   Lucas Lang             : DCDCAS
   Marvin Lechner         : AUTO-CI (C++ implementation), FIC-MRCC
   Dagmar Lenk            : GEPOL surface, SMD
   Dimitrios Liakos       : Extrapolation schemes; Compound Job, initial MDCI parallelization
   Dimitrios Manganas     : Further ROCIS development; embedding schemes
   Dimitrios Pantazis     : SARC Basis sets
   Anastasios Papadopoulos: AUTO-CI, single reference methods and gradients
   Taras Petrenko         : DFT Hessian,TD-DFT gradient, ASA, ECA, R-Raman, ABS, FL, XAS/XES, NRVS
   Peter Pinski           : DLPNO-MP2, DLPNO-MP2 Gradient
   Christoph Reimann      : Effective Core Potentials
   Marius Retegan         : Local ZFS, SOC
   Christoph Riplinger    : Optimizer, TS searches, QM/MM, DLPNO-CCSD(T), (RO)-DLPNO pert. Triples
   Tobias Risthaus        : Range-separated hybrids, TD-DFT gradient, RPA, STAB
   Michael Roemelt        : Original ROCIS implementation
   Masaaki Saitow         : Open-shell DLPNO-CCSD energy and density
   Barbara Sandhoefer     : DKH picture change effects
   Avijit Sen             : IP-ROCIS
   Kantharuban Sivalingam : CASSCF convergence, NEVPT2, FIC-MRCI
   Bernardo de Souza      : ESD, SOC TD-DFT
   Georgi Stoychev        : AutoAux, RI-MP2 NMR, DLPNO-MP2 response
   Willem Van den Heuvel  : Paramagnetic NMR
   Boris Wezisla          : Elementary symmetry handling
   Frank Wennmohs         : Technical directorship


 We gratefully acknowledge several colleagues who have allowed us to
 interface, adapt or use parts of their codes:
   Stefan Grimme, W. Hujo, H. Kruse, P. Pracht,  : VdW corrections, initial TS optimization,
                  C. Bannwarth, S. Ehlert          DFT functionals, gCP, sTDA/sTD-DF
   Ed Valeev, F. Pavosevic, A. Kumar             : LibInt (2-el integral package), F12 methods
   Garnet Chan, S. Sharma, J. Yang, R. Olivares  : DMRG
   Ulf Ekstrom                                   : XCFun DFT Library
   Mihaly Kallay                                 : mrcc  (arbitrary order and MRCC methods)
   Jiri Pittner, Ondrej Demel                    : Mk-CCSD
   Frank Weinhold                                : gennbo (NPA and NBO analysis)
   Christopher J. Cramer and Donald G. Truhlar   : smd solvation model
   Lars Goerigk                                  : TD-DFT with DH, B97 family of functionals
   V. Asgeirsson, H. Jonsson                     : NEB implementation
   FAccTs GmbH                                   : IRC, NEB, NEB-TS, DLPNO-Multilevel, CI-OPT
                                                   MM, QMMM, 2- and 3-layer-ONIOM, Crystal-QMMM,
                                                   LR-CPCM, SF, NACMEs, symmetry and pop. for TD-DFT,
                                                   nearIR, NL-DFT gradient (VV10), updates on ESD,
                                                   ML-optimized integration grids
   S Lehtola, MJT Oliveira, MAL Marques          : LibXC Library
   Liviu Ungur et al                             : ANISO software


 Your calculation uses the libint2 library for the computation of 2-el integrals
 For citations please refer to: http://libint.valeyev.net

 Your ORCA version has been built with support for libXC version: 5.1.0
 For citations please refer to: https://tddft.org/programs/libxc/

 This ORCA versions uses:
   CBLAS   interface :  Fast vector & matrix operations
   LAPACKE interface :  Fast linear algebra routines
   SCALAPACK package :  Parallel linear algebra routines
   Shared memory     :  Shared parallel matrices
   BLAS/LAPACK       :  OpenBLAS 0.3.15  USE64BITINT DYNAMIC_ARCH NO_AFFINITY SkylakeX SINGLE_THREADED
        Core in use  :  SkylakeX
   Copyright (c) 2011-2014, The OpenBLAS Project


Your calculation utilizes the DFT-NL dispersion correction.
Cite in your paper:
Vydrov, O. A.; Van Voorhis, T. J. Chem. Phys. 2010, 133, 244103
Hujo, W.; Grimme, S. J. Chem. Theory Comput. 2011, 7, 3866 
   

================================================================================

----- Orbital basis set information -----
Your calculation utilizes the basis: def2-TZVP
   F. Weigend and R. Ahlrichs, Phys. Chem. Chem. Phys. 7, 3297 (2005).

----- AuxJ basis set information -----
Your calculation utilizes the auxiliary basis: def2/J
   F. Weigend, Phys. Chem. Chem. Phys. 8, 1057 (2006).

================================================================================
                                        WARNINGS
                       Please study these warnings very carefully!
================================================================================


WARNING: Geometry Optimization
  ===> : Switching off AutoStart
         For restart on a previous wavefunction, please use MOREAD

WARNING: Analytic gradients for DFT-NL dispersion can only be done using the self-consistent method,
  ===>   Switching to SCNL

WARNING: Self-consistent DFT-NL dispersion not compatible with AutoTRAH.
  ===>   Switching AutoTRAH off


INFO   : the flag for use of the SHARK integral package has been found!

================================================================================
                                       INPUT FILE
================================================================================
NAME = /burg/berkelbach/users/eav2136/projects/peroxide_dissociation/05_range_separated_functional/wb97x-v-peroxide/wb97x-v-peroxide_opt.inp
|  1> ! UKS wB97X-V def2-TZVP TIGHTSCF Opt PAL8
|  2> %maxcore 5000
|  3> * xyz 0 1
|  4>  C -0.07425707479814 6.45007760366319 3.54636897867849
|  5>  S 1.48979584793712 6.08048225687873 2.75598260255209
|  6>  C 1.14936654141856 4.63662227087222 1.83369205968326
|  7>  C -0.09136557109480 4.00305286554088 1.79338352444578
|  8>  C -0.25826928718407 2.84269542505768 1.05936282240646
|  9>  C 0.80050967676942 2.30271389692801 0.33923873907232
| 10>  C 2.02875697338567 2.96040825022008 0.34201900047512
| 11>  C 2.20764771123846 4.10330343094754 1.09121055149825
| 12>  C 0.66254428710301 1.09941809961861 -0.50690159852297
| 13>  O 0.00000000000000 0.00000000000000 0.00000000000000
| 14>  O 1.06713866538631 0.98717129960580 -1.62357736506780
| 15>  O 0.00000000000000 0.00000000000000 1.41527284498687
| 16>  C -1.27388770944479 0.00000000000000 1.91590645535523
| 17>  C -1.22211457253867 0.06642777988277 3.38831477989974
| 18>  O -2.25742922897412 -0.02585779042736 1.23875652957256
| 19>  C -2.41543940252313 -0.12289611375011 4.08595252694906
| 20>  C -2.44195923478874 -0.03437680070658 5.45887710053507
| 21>  C -1.27275068522395 0.25496212808386 6.17298493884884
| 22>  C -0.08177795586127 0.45060655108151 5.47518008098465
| 23>  C -0.05890441770979 0.35440376081578 4.09544628781756
| 24>  S -1.42666733932306 0.34986111841343 7.90788531117200
| 25>  C 0.24316058065577 0.68495422113854 8.46194522255982
| 26>  H 0.10416325535368 7.34607684664392 4.14087383255362
| 27>  H -0.38882275224257 5.64387294862163 4.21002028523424
| 28>  H -0.85323854703301 6.66443357654391 2.81385647784552
| 29>  H -0.93700004363157 4.40513362395569 2.33421606140266
| 30>  H -1.23507439683237 2.37497021944690 1.02749021968162
| 31>  H 2.84544686618639 2.55882587909200 -0.24576673820719
| 32>  H 3.17295340310622 4.59670965109571 1.10248346369500
| 33>  H -3.31769085302541 -0.33900022625314 3.52707230389961
| 34>  H -3.37188538809726 -0.18808364875198 5.99464715790180
| 35>  H 0.83479761044422 0.68252071425859 5.99988733430662
| 36>  H 0.87046926144621 0.51883617942438 3.56602510045047
| 37>  H 0.18454114424639 0.73729393679500 9.54909076814075
| 38>  H 0.60864534290486 1.64029462399245 8.08374213903351
| 39>  H 0.92507514742305 -0.11949528816653 8.18458994466104
| 40> *
| 41> 
| 42>                          ****END OF INPUT****
================================================================================

                       *****************************
                       * Geometry Optimization Run *
                       *****************************

Geometry optimization settings:
Update method            Update   .... BFGS
Choice of coordinates    CoordSys .... Z-matrix Internals
Initial Hessian          InHess   .... Almoef's Model

Convergence Tolerances:
Energy Change            TolE     ....  5.0000e-06 Eh
Max. Gradient            TolMAXG  ....  3.0000e-04 Eh/bohr
RMS Gradient             TolRMSG  ....  1.0000e-04 Eh/bohr
Max. Displacement        TolMAXD  ....  4.0000e-03 bohr
RMS Displacement         TolRMSD  ....  2.0000e-03 bohr
Strict Convergence                ....  False
------------------------------------------------------------------------------
                        ORCA OPTIMIZATION COORDINATE SETUP
------------------------------------------------------------------------------

The optimization will be done in new redundant internal coordinates
Making redundant internal coordinates   ...  (new redundants) done
Evaluating the initial hessian          ...  (Almloef) done
Evaluating the coordinates              ...  done
Calculating the B-matrix                .... done
Calculating the G-matrix                .... done
Diagonalizing the G-matrix              .... done
Small eigenvalue found = 6.813e-04
Small eigenvalue found = 1.847e-03
Small eigenvalue found = 4.132e-03
Small eigenvalue found = 1.197e-02
Small eigenvalue found = 1.299e-02
Small eigenvalue found = 2.647e-02
The first mode is                       ....   64
The number of degrees of freedom        ....  102

    -----------------------------------------------------------------
                    Redundant Internal Coordinates


    -----------------------------------------------------------------
         Definition                    Initial Value    Approx d2E/dq
    -----------------------------------------------------------------
      1. B(S   1,C   0)                  1.7910         0.386175   
      2. B(C   2,S   1)                  1.7468         0.454240   
      3. B(C   3,C   2)                  1.3937         0.616320   
      4. B(C   4,C   3)                  1.3831         0.640745   
      5. B(C   5,C   4)                  1.3897         0.625563   
      6. B(C   6,C   5)                  1.3933         0.617369   
      7. B(C   7,C   2)                  1.3985         0.605696   
      8. B(C   7,C   6)                  1.3782         0.652421   
      9. B(C   8,C   5)                  1.4775         0.453096   
     10. B(O   9,C   8)                  1.3801         0.580356   
     11. B(O  10,C   8)                  1.1930         1.153901   
     12. B(O  11,O   9)                  1.4153         0.456763   
     13. B(C  12,O  11)                  1.3687         0.605075   
     14. B(C  13,C  12)                  1.4748         0.457532   
     15. B(O  14,C  12)                  1.1944         1.148067   
     16. B(C  15,C  13)                  1.3952         0.612988   
     17. B(C  16,C  15)                  1.3760         0.657696   
     18. B(C  17,C  16)                  1.4003         0.601695   
     19. B(C  18,C  17)                  1.3941         0.615367   
     20. B(C  19,C  18)                  1.3833         0.640430   
     21. B(C  19,C  13)                  1.3914         0.621567   
     22. B(S  20,C  17)                  1.7443         0.458402   
     23. B(C  21,S  20)                  1.7910         0.386167   
     24. B(H  22,C   0)                  1.0900         0.360109   
     25. B(H  23,C   0)                  1.0906         0.359342   
     26. B(H  24,C   0)                  1.0906         0.359351   
     27. B(H  25,C   3)                  1.0813         0.371759   
     28. B(H  26,C   4)                  1.0835         0.368828   
     29. B(H  27,C   6)                  1.0834         0.368946   
     30. B(H  28,C   7)                  1.0842         0.367916   
     31. B(H  29,C  15)                  1.0831         0.369344   
     32. B(H  30,C  16)                  1.0842         0.367887   
     33. B(H  31,C  18)                  1.0813         0.371793   
     34. B(H  32,C  19)                  1.0822         0.370628   
     35. B(H  33,C  21)                  1.0900         0.360124   
     36. B(H  34,C  21)                  1.0905         0.359378   
     37. B(H  35,C  21)                  1.0904         0.359511   
     38. A(H  22,C   0,H  23)          108.8436         0.290744   
     39. A(H  22,C   0,H  24)          108.7656         0.290746   
     40. A(S   1,C   0,H  24)          111.5879         0.342618   
     41. A(S   1,C   0,H  23)          111.5859         0.342616   
     42. A(H  23,C   0,H  24)          110.3658         0.290648   
     43. A(S   1,C   0,H  22)          105.5091         0.342738   
     44. A(C   0,S   1,C   2)          103.4970         0.419917   
     45. A(C   3,C   2,C   7)          119.0102         0.431786   
     46. A(S   1,C   2,C   3)          124.3692         0.432719   
     47. A(S   1,C   2,C   7)          116.6202         0.431369   
     48. A(C   2,C   3,C   4)          120.2744         0.436178   
     49. A(C   4,C   3,H  25)          118.8821         0.356807   
     50. A(C   2,C   3,H  25)          120.8433         0.354461   
     51. A(C   5,C   4,H  26)          120.2581         0.354880   
     52. A(C   3,C   4,H  26)          119.1145         0.356327   
     53. A(C   3,C   4,C   5)          120.6005         0.437350   
     54. A(C   4,C   5,C   6)          119.1567         0.434432   
     55. A(C   4,C   5,C   8)          122.8259         0.411072   
     56. A(C   6,C   5,C   8)          117.8994         0.410112   
     57. A(C   7,C   6,H  27)          120.2952         0.357442   
     58. A(C   5,C   6,H  27)          119.2412         0.354107   
     59. A(C   5,C   6,C   7)          120.4618         0.437734   
     60. A(C   6,C   7,H  28)          119.9087         0.357272   
     61. A(C   2,C   7,H  28)          119.6508         0.352797   
     62. A(C   2,C   7,C   6)          120.4398         0.436231   
     63. A(O   9,C   8,O  10)          115.5727         0.473849   
     64. A(C   5,C   8,O  10)          125.5219         0.455899   
     65. A(C   5,C   8,O   9)          118.8999         0.403044   
     66. A(C   8,O   9,O  11)          111.5490         0.398410   
     67. A(O   9,O  11,C  12)          111.4547         0.401345   
     68. A(C  13,C  12,O  14)          126.5770         0.456288   
     69. A(O  11,C  12,O  14)          123.9896         0.477054   
     70. A(O  11,C  12,C  13)          109.4203         0.406723   
     71. A(C  12,C  13,C  19)          123.0966         0.411315   
     72. A(C  15,C  13,C  19)          119.2748         0.433376   
     73. A(C  12,C  13,C  15)          117.5858         0.410303   
     74. A(C  16,C  15,H  29)          120.7715         0.357997   
     75. A(C  13,C  15,H  29)          118.7871         0.353745   
     76. A(C  13,C  15,C  16)          120.4413         0.437808   
     77. A(C  17,C  16,H  30)          119.5691         0.352397   
     78. A(C  15,C  16,H  30)          120.0309         0.357757   
     79. A(C  15,C  16,C  17)          120.3999         0.436343   
     80. A(C  16,C  17,S  20)          116.4104         0.431562   
     81. A(C  18,C  17,S  20)          124.4423         0.433309   
     82. A(C  16,C  17,C  18)          119.1469         0.431152   
     83. A(C  17,C  18,C  19)          120.2393         0.436018   
     84. A(C  19,C  18,H  31)          119.0068         0.356782   
     85. A(C  17,C  18,H  31)          120.7535         0.354374   
     86. A(C  13,C  19,C  18)          120.4962         0.436806   
     87. A(C  18,C  19,H  32)          119.4465         0.356592   
     88. A(C  13,C  19,H  32)          120.0518         0.354788   
     89. A(C  17,S  20,C  21)          103.6272         0.420599   
     90. A(H  34,C  21,H  35)          110.3939         0.290673   
     91. A(H  33,C  21,H  35)          108.8290         0.290768   
     92. A(S  20,C  21,H  35)          111.4899         0.342642   
     93. A(H  33,C  21,H  34)          108.7753         0.290751   
     94. A(S  20,C  21,H  34)          111.6593         0.342620   
     95. A(S  20,C  21,H  33)          105.5095         0.342739   
     96. D(C   2,S   1,C   0,H  22)    179.5234         0.003898   
     97. D(C   2,S   1,C   0,H  23)     61.4721         0.003898   
     98. D(C   2,S   1,C   0,H  24)    -62.5176         0.003898   
     99. D(C   3,C   2,S   1,C   0)      0.0768         0.004531   
    100. D(C   7,C   2,S   1,C   0)    179.8441         0.004531   
    101. D(C   4,C   3,C   2,C   7)      1.8479         0.026266   
    102. D(C   4,C   3,C   2,S   1)   -178.3900         0.026266   
    103. D(H  25,C   3,C   2,C   7)   -178.3097         0.026266   
    104. D(H  25,C   3,C   2,S   1)      1.4524         0.026266   
    105. D(H  26,C   4,C   3,H  25)      1.1825         0.028529   
    106. D(H  26,C   4,C   3,C   2)   -178.9720         0.028529   
    107. D(C   5,C   4,C   3,H  25)    179.3028         0.028529   
    108. D(C   5,C   4,C   3,C   2)     -0.8517         0.028529   
    109. D(C   6,C   5,C   4,H  26)    176.7603         0.027109   
    110. D(C   6,C   5,C   4,C   3)     -1.3385         0.027109   
    111. D(C   8,C   5,C   4,C   3)   -177.3042         0.027109   
    112. D(C   8,C   5,C   4,H  26)      0.7946         0.027109   
    113. D(H  27,C   6,C   5,C   8)     -1.7852         0.026361   
    114. D(H  27,C   6,C   5,C   4)   -177.9495         0.026361   
    115. D(C   7,C   6,C   5,C   8)    178.6982         0.026361   
    116. D(C   7,C   6,C   5,C   4)      2.5338         0.026361   
    117. D(H  28,C   7,C   6,H  27)     -0.7379         0.029652   
    118. D(H  28,C   7,C   6,C   5)    178.7736         0.029652   
    119. D(C   2,C   7,C   6,H  27)    178.9472         0.029652   
    120. D(C   2,C   7,C   6,C   5)     -1.5413         0.029652   
    121. D(H  28,C   7,C   2,C   3)    179.0287         0.025317   
    122. D(H  28,C   7,C   2,S   1)     -0.7516         0.025317   
    123. D(C   6,C   7,C   2,C   3)     -0.6572         0.025317   
    124. D(C   6,C   7,C   2,S   1)    179.5625         0.025317   
    125. D(O   9,C   8,C   5,C   6)    137.7156         0.013991   
    126. D(O   9,C   8,C   5,C   4)    -46.2708         0.013991   
    127. D(O  10,C   8,C   5,C   6)    -43.1749         0.013991   
    128. D(O  10,C   8,C   5,C   4)    132.8388         0.013991   
    129. D(O  11,O   9,C   8,O  10)    157.9229         0.024498   
    130. D(O  11,O   9,C   8,C   5)    -22.8806         0.024498   
    131. D(C  12,O  11,O   9,C   8)    121.0745         0.015467   
    132. D(O  14,C  12,O  11,O   9)      1.4962         0.026770   
    133. D(C  13,C  12,O  11,O   9)   -177.2626         0.026770   
    134. D(C  19,C  13,C  12,O  14)   -167.0428         0.014262   
    135. D(C  19,C  13,C  12,O  11)     11.6757         0.014262   
    136. D(C  15,C  13,C  12,O  14)     10.5550         0.014262   
    137. D(C  15,C  13,C  12,O  11)   -170.7265         0.014262   
    138. D(H  29,C  15,C  13,C  19)    179.5255         0.025966   
    139. D(H  29,C  15,C  13,C  12)      1.8326         0.025966   
    140. D(C  16,C  15,C  13,C  19)     -0.4006         0.025966   
    141. D(C  16,C  15,C  13,C  12)   -178.0935         0.025966   
    142. D(H  30,C  16,C  15,H  29)      0.4119         0.030169   
    143. D(H  30,C  16,C  15,C  13)   -179.6635         0.030169   
    144. D(C  17,C  16,C  15,H  29)   -179.5362         0.030169   
    145. D(C  17,C  16,C  15,C  13)      0.3884         0.030169   
    146. D(S  20,C  17,C  16,H  30)     -0.2280         0.024966   
    147. D(S  20,C  17,C  16,C  15)    179.7203         0.024966   
    148. D(C  18,C  17,C  16,H  30)    179.9814         0.024966   
    149. D(C  18,C  17,C  16,C  15)     -0.0703         0.024966   
    150. D(H  31,C  18,C  17,S  20)     -0.2266         0.026180   
    151. D(H  31,C  18,C  17,C  16)    179.5460         0.026180   
    152. D(C  19,C  18,C  17,S  20)    179.9944         0.026180   
    153. D(C  19,C  18,C  17,C  16)     -0.2330         0.026180   
    154. D(C  13,C  19,C  18,C  17)      0.2195         0.028499   
    155. D(H  32,C  19,C  13,C  15)   -179.0463         0.026742   
    156. D(H  32,C  19,C  13,C  12)     -1.4873         0.026742   
    157. D(C  18,C  19,C  13,C  15)      0.0962         0.026742   
    158. D(C  18,C  19,C  13,C  12)    177.6553         0.026742   
    159. D(H  32,C  19,C  18,H  31)     -0.4157         0.028499   
    160. D(H  32,C  19,C  18,C  17)    179.3672         0.028499   
    161. D(C  13,C  19,C  18,H  31)   -179.5634         0.028499   
    162. D(C  21,S  20,C  17,C  18)     -1.6462         0.004589   
    163. D(C  21,S  20,C  17,C  16)    178.5756         0.004589   
    164. D(H  35,C  21,S  20,C  17)    -61.2749         0.003898   
    165. D(H  34,C  21,S  20,C  17)     62.7331         0.003898   
    166. D(H  33,C  21,S  20,C  17)   -179.2586         0.003898   
    -----------------------------------------------------------------

Number of atoms                         .... 36
Number of degrees of freedom            .... 166

         *************************************************************
         *                GEOMETRY OPTIMIZATION CYCLE   1            *
         *************************************************************
---------------------------------
CARTESIAN COORDINATES (ANGSTROEM)
---------------------------------
  C     -0.074257    6.450078    3.546369
  S      1.489796    6.080482    2.755983
  C      1.149367    4.636622    1.833692
  C     -0.091366    4.003053    1.793384
  C     -0.258269    2.842695    1.059363
  C      0.800510    2.302714    0.339239
  C      2.028757    2.960408    0.342019
  C      2.207648    4.103303    1.091211
  C      0.662544    1.099418   -0.506902
  O      0.000000    0.000000    0.000000
  O      1.067139    0.987171   -1.623577
  O      0.000000    0.000000    1.415273
  C     -1.273888    0.000000    1.915906
  C     -1.222115    0.066428    3.388315
  O     -2.257429   -0.025858    1.238757
  C     -2.415439   -0.122896    4.085953
  C     -2.441959   -0.034377    5.458877
  C     -1.272751    0.254962    6.172985
  C     -0.081778    0.450607    5.475180
  C     -0.058904    0.354404    4.095446
  S     -1.426667    0.349861    7.907885
  C      0.243161    0.684954    8.461945
  H      0.104163    7.346077    4.140874
  H     -0.388823    5.643873    4.210020
  H     -0.853239    6.664434    2.813856
  H     -0.937000    4.405134    2.334216
  H     -1.235074    2.374970    1.027490
  H      2.845447    2.558826   -0.245767
  H      3.172953    4.596710    1.102483
  H     -3.317691   -0.339000    3.527072
  H     -3.371885   -0.188084    5.994647
  H      0.834798    0.682521    5.999887
  H      0.870469    0.518836    3.566025
  H      0.184541    0.737294    9.549091
  H      0.608645    1.640295    8.083742
  H      0.925075   -0.119495    8.184590

----------------------------
CARTESIAN COORDINATES (A.U.)
----------------------------
  NO LB      ZA    FRAG     MASS         X           Y           Z
   0 C     6.0000    0    12.011   -0.140326   12.188880    6.701666
   1 S    16.0000    0    32.060    2.815306   11.490446    5.208052
   2 C     6.0000    0    12.011    2.171988    8.761946    3.465176
   3 C     6.0000    0    12.011   -0.172656    7.564674    3.389004
   4 C     6.0000    0    12.011   -0.488058    5.371916    2.001906
   5 C     6.0000    0    12.011    1.512744    4.351499    0.641068
   6 C     6.0000    0    12.011    3.833795    5.594361    0.646322
   7 C     6.0000    0    12.011    4.171850    7.754120    2.062089
   8 C     6.0000    0    12.011    1.252027    2.077599   -0.957905
   9 O     8.0000    0    15.999    0.000000    0.000000    0.000000
  10 O     8.0000    0    15.999    2.016600    1.865483   -3.068117
  11 O     8.0000    0    15.999    0.000000    0.000000    2.674478
  12 C     6.0000    0    12.011   -2.407299    0.000000    3.620538
  13 C     6.0000    0    12.011   -2.309462    0.125530    6.402987
  14 O     8.0000    0    15.999   -4.265923   -0.048864    2.340911
  15 C     6.0000    0    12.011   -4.564519   -0.232240    7.721331
  16 C     6.0000    0    12.011   -4.614634   -0.064963   10.315783
  17 C     6.0000    0    12.011   -2.405150    0.481809   11.665251
  18 C     6.0000    0    12.011   -0.154538    0.851523   10.346591
  19 C     6.0000    0    12.011   -0.111313    0.669726    7.739272
  20 S    16.0000    0    32.060   -2.696011    0.661142   14.943738
  21 C     6.0000    0    12.011    0.459507    1.294376   15.990759
  22 H     1.0000    0     1.008    0.196840   13.882073    7.825117
  23 H     1.0000    0     1.008   -0.734769   10.665374    7.955785
  24 H     1.0000    0     1.008   -1.612387   12.593954    5.317418
  25 H     1.0000    0     1.008   -1.770673    8.324496    4.411029
  26 H     1.0000    0     1.008   -2.333952    4.488043    1.941675
  27 H     1.0000    0     1.008    5.377115    4.835480   -0.464432
  28 H     1.0000    0     1.008    5.996013    8.686522    2.083392
  29 H     1.0000    0     1.008   -6.269527   -0.640618    6.665201
  30 H     1.0000    0     1.008   -6.371940   -0.355427   11.328241
  31 H     1.0000    0     1.008    1.577539    1.289777   11.338144
  32 H     1.0000    0     1.008    1.644949    0.980458    6.738811
  33 H     1.0000    0     1.008    0.348732    1.393284   18.045166
  34 H     1.0000    0     1.008    1.150173    3.099708   15.276059
  35 H     1.0000    0     1.008    1.748139   -0.225813   15.466634

--------------------------------
INTERNAL COORDINATES (ANGSTROEM)
--------------------------------
 C      0   0   0     0.000000000000     0.00000000     0.00000000
 S      1   0   0     1.790969818017     0.00000000     0.00000000
 C      2   1   0     1.746780929995   103.49703222     0.00000000
 C      3   2   1     1.393718459520   124.36918170     0.07682297
 C      4   3   2     1.383138688329   120.27439762   181.60997218
 C      5   4   3     1.389666017657   120.60050203   359.14829865
 C      6   5   4     1.393255545064   119.15672375   358.66151732
 C      7   6   5     1.378223229504   120.46180539     2.53383799
 C      6   5   4     1.477466986255   122.82593719   182.69580816
 O      9   6   5     1.380084896203   118.89987975   313.72924568
 O      9   6   5     1.193004913083   125.52191253   132.83876530
 O     10   9   6     1.415272844987   111.54903739   337.11941713
 C     12  10   9     1.368730765383   111.45466078   121.07450275
 C     13  12  10     1.474815033092   109.42032141   182.73741157
 O     13  12  10     1.194384598005   123.98959865     1.49620750
 C     14  13  12     1.395193933712   117.58575536   189.27346256
 C     16  14  13     1.376030833609   120.44129595   181.90648253
 C     17  16  14     1.400255566970   120.39992501     0.38844050
 C     18  17  16     1.394139305089   119.14686446   359.92970699
 C     19  18  17     1.383272755320   120.23932774   359.76697987
 S     18  17  16     1.744297983907   116.41043178   179.72028820
 C     21  18  17     1.790976006328   103.62720090   178.57561880
 H      1   2   3     1.089992880213   105.50910599   179.52342869
 H      1   2   3     1.090573504139   111.58592171    61.47211732
 H      1   2   3     1.090566449636   111.58785041   297.48242808
 H      4   3   2     1.081326236832   120.84329981     1.45240478
 H      5   4   3     1.083480942612   119.11451180   181.02803207
 H      7   6   5     1.083394137146   119.24119758   182.05045369
 H      8   7   6     1.084154903776   119.90872766   178.77361985
 H     16  14  13     1.083100074365   118.78711222     1.83264212
 H     17  16  14     1.084176184997   120.03093279   180.33653865
 H     19  18  17     1.081301368500   120.75351253   179.54600540
 H     20  19  18     1.082155372130   119.44648422   179.36717552
 H     22  21  18     1.089982165651   105.50954915   180.74135630
 H     22  21  18     1.090546637769   111.65925285    62.73308778
 H     22  21  18     1.090445981958   111.48990618   298.72507539

---------------------------
INTERNAL COORDINATES (A.U.)
---------------------------
 C      0   0   0     0.000000000000     0.00000000     0.00000000
 S      1   0   0     3.384442470171     0.00000000     0.00000000
 C      2   1   0     3.300937573646   103.49703222     0.00000000
 C      3   2   1     2.633746196283   124.36918170     0.07682297
 C      4   3   2     2.613753326172   120.27439762   181.60997218
 C      5   4   3     2.626088190988   120.60050203   359.14829865
 C      6   5   4     2.632871414738   119.15672375   358.66151732
 C      7   6   5     2.604464455171   120.46180539     2.53383799
 C      6   5   4     2.792007975932   122.82593719   182.69580816
 O      9   6   5     2.607982495384   118.89987975   313.72924568
 O      9   6   5     2.254452562149   125.52191253   132.83876530
 O     10   9   6     2.674478081801   111.54903739   337.11941713
 C     12  10   9     2.586526297646   111.45466078   121.07450275
 C     13  12  10     2.786996510733   109.42032141   182.73741157
 O     13  12  10     2.257059788803   123.98959865     1.49620750
 C     14  13  12     2.636534438423   117.58575536   189.27346256
 C     16  14  13     2.600321427352   120.44129595   181.90648253
 C     17  16  14     2.646099539072   120.39992501     0.38844050
 C     18  17  16     2.634541479154   119.14686446   359.92970699
 C     19  18  17     2.614006676069   120.23932774   359.76697987
 S     18  17  16     3.296245485535   116.41043178   179.72028820
 C     21  18  17     3.384454164384   103.62720090   178.57561880
 H      1   2   3     2.059788031526   105.50910599   179.52342869
 H      1   2   3     2.060885251733   111.58592171    61.47211732
 H      1   2   3     2.060871920655   111.58785041   297.48242808
 H      4   3   2     2.043410449036   120.84329981     1.45240478
 H      5   4   3     2.047482252859   119.11451180   181.02803207
 H      7   6   5     2.047318214302   119.24119758   182.05045369
 H      8   7   6     2.048755854885   119.90872766   178.77361985
 H     16  14  13     2.046762516180   118.78711222     1.83264212
 H     17  16  14     2.048796070563   120.03093279   180.33653865
 H     19  18  17     2.043363454698   120.75351253   179.54600540
 H     20  19  18     2.044977287678   119.44648422   179.36717552
 H     22  21  18     2.059767783938   105.50954915   180.74135630
 H     22  21  18     2.060834481653   111.65925285    62.73308778
 H     22  21  18     2.060644269736   111.48990618   298.72507539

---------------------
BASIS SET INFORMATION
---------------------
There are 4 groups of distinct atoms

 Group   1 Type C   : 11s6p2d1f contracted to 5s3p2d1f pattern {62111/411/11/1}
 Group   2 Type S   : 14s9p3d1f contracted to 5s5p2d1f pattern {73211/51111/21/1}
 Group   3 Type O   : 11s6p2d1f contracted to 5s3p2d1f pattern {62111/411/11/1}
 Group   4 Type H   : 5s1p contracted to 3s1p pattern {311/1}

Atom   0C    basis set group =>   1
Atom   1S    basis set group =>   2
Atom   2C    basis set group =>   1
Atom   3C    basis set group =>   1
Atom   4C    basis set group =>   1
Atom   5C    basis set group =>   1
Atom   6C    basis set group =>   1
Atom   7C    basis set group =>   1
Atom   8C    basis set group =>   1
Atom   9O    basis set group =>   3
Atom  10O    basis set group =>   3
Atom  11O    basis set group =>   3
Atom  12C    basis set group =>   1
Atom  13C    basis set group =>   1
Atom  14O    basis set group =>   3
Atom  15C    basis set group =>   1
Atom  16C    basis set group =>   1
Atom  17C    basis set group =>   1
Atom  18C    basis set group =>   1
Atom  19C    basis set group =>   1
Atom  20S    basis set group =>   2
Atom  21C    basis set group =>   1
Atom  22H    basis set group =>   4
Atom  23H    basis set group =>   4
Atom  24H    basis set group =>   4
Atom  25H    basis set group =>   4
Atom  26H    basis set group =>   4
Atom  27H    basis set group =>   4
Atom  28H    basis set group =>   4
Atom  29H    basis set group =>   4
Atom  30H    basis set group =>   4
Atom  31H    basis set group =>   4
Atom  32H    basis set group =>   4
Atom  33H    basis set group =>   4
Atom  34H    basis set group =>   4
Atom  35H    basis set group =>   4
---------------------------------
AUXILIARY/J BASIS SET INFORMATION
---------------------------------
There are 4 groups of distinct atoms

 Group   1 Type C   : 12s5p4d2f1g contracted to 6s4p3d1f1g pattern {711111/2111/211/2/1}
 Group   2 Type S   : 14s5p5d2f1g contracted to 8s4p3d1f1g pattern {71111111/2111/311/2/1}
 Group   3 Type O   : 12s5p4d2f1g contracted to 6s4p3d1f1g pattern {711111/2111/211/2/1}
 Group   4 Type H   : 5s2p1d contracted to 3s1p1d pattern {311/2/1}

Atom   0C    basis set group =>   1
Atom   1S    basis set group =>   2
Atom   2C    basis set group =>   1
Atom   3C    basis set group =>   1
Atom   4C    basis set group =>   1
Atom   5C    basis set group =>   1
Atom   6C    basis set group =>   1
Atom   7C    basis set group =>   1
Atom   8C    basis set group =>   1
Atom   9O    basis set group =>   3
Atom  10O    basis set group =>   3
Atom  11O    basis set group =>   3
Atom  12C    basis set group =>   1
Atom  13C    basis set group =>   1
Atom  14O    basis set group =>   3
Atom  15C    basis set group =>   1
Atom  16C    basis set group =>   1
Atom  17C    basis set group =>   1
Atom  18C    basis set group =>   1
Atom  19C    basis set group =>   1
Atom  20S    basis set group =>   2
Atom  21C    basis set group =>   1
Atom  22H    basis set group =>   4
Atom  23H    basis set group =>   4
Atom  24H    basis set group =>   4
Atom  25H    basis set group =>   4
Atom  26H    basis set group =>   4
Atom  27H    basis set group =>   4
Atom  28H    basis set group =>   4
Atom  29H    basis set group =>   4
Atom  30H    basis set group =>   4
Atom  31H    basis set group =>   4
Atom  32H    basis set group =>   4
Atom  33H    basis set group =>   4
Atom  34H    basis set group =>   4
Atom  35H    basis set group =>   4


           ************************************************************
           *        Program running with 8 parallel MPI-processes     *
           *              working on a common directory               *
           ************************************************************
------------------------------------------------------------------------------
                           ORCA GTO INTEGRAL CALCULATION
                           -- RI-GTO INTEGRALS CHOSEN --
------------------------------------------------------------------------------
------------------------------------------------------------------------------
                   ___                                                        
                  /   \      - P O W E R E D   B Y -                         
                 /     \                                                     
                 |  |  |   _    _      __       _____    __    __             
                 |  |  |  | |  | |    /  \     |  _  \  |  |  /  |          
                  \  \/   | |  | |   /    \    | | | |  |  | /  /          
                 / \  \   | |__| |  /  /\  \   | |_| |  |  |/  /          
                |  |  |   |  __  | /  /__\  \  |    /   |      \           
                |  |  |   | |  | | |   __   |  |    \   |  |\   \          
                \     /   | |  | | |  |  |  |  | |\  \  |  | \   \       
                 \___/    |_|  |_| |__|  |__|  |_| \__\ |__|  \__/        
                                                                              
                      - O R C A' S   B I G   F R I E N D -                    
                                      &                                       
                       - I N T E G R A L  F E E D E R -                       
                                                                              
 v1 FN, 2020, v2 2021                                                         
------------------------------------------------------------------------------


Reading SHARK input file /burg/berkelbach/users/eav2136/projects/peroxide_dissociation/05_range_separated_functional/wb97x-v-peroxide/wb97x-v-peroxide_opt.SHARKINP.tmp ... ok
----------------------
SHARK INTEGRAL PACKAGE
----------------------

Number of atoms                             ...     36
Number of basis functions                   ...    778
Number of shells                            ...    302
Maximum angular momentum                    ...      3
Integral batch strategy                     ... SHARK/LIBINT Hybrid
RI-J (if used) integral strategy            ... SPLIT-RIJ (Revised 2003 algorithm where possible)
Printlevel                                  ...      1
Contraction scheme used                     ... SEGMENTED contraction
Coulomb Range Separation                    ... NOT USED
Exchange Range Separation                   ... Long Range
   Mu parameter                             ...  0.300000
   Scaling (regular/separated)              ...  0.167000  0.833000
Finite Nucleus Model                        ... NOT USED
Auxiliary Coulomb fitting basis             ... AVAILABLE
   # of basis functions in Aux-J            ...   1236
   # of shells in Aux-J                     ...    404
   Maximum angular momentum in Aux-J        ...      4
Auxiliary J/K fitting basis                 ... NOT available
Auxiliary Correlation fitting basis         ... NOT available
Auxiliary 'external' fitting basis          ... NOT available
Integral threshold                          ...     2.500000e-11
Primitive cut-off                           ...     2.500000e-12
Primitive pair pre-selection threshold      ...     2.500000e-12

Calculating pre-screening integrals         ... done (  0.1 sec) Dimension = 302
Organizing shell pair data                  ... done (  0.3 sec)
Shell pair information
Total number of shell pairs                 ...     45753
Shell pairs after pre-screening             ...     30707
Total number of primitive shell pairs       ...    145545
Primitive shell pairs kept                  ...     63502
          la=0 lb=0:   7523 shell pairs
          la=1 lb=0:   8937 shell pairs
          la=1 lb=1:   2674 shell pairs
          la=2 lb=0:   4331 shell pairs
          la=2 lb=1:   2602 shell pairs
          la=2 lb=2:    662 shell pairs
          la=3 lb=0:   2019 shell pairs
          la=3 lb=1:   1229 shell pairs
          la=3 lb=2:    589 shell pairs
          la=3 lb=3:    141 shell pairs

Calculating one electron integrals          ... done (  0.1 sec)
Calculating RI/J V-Matrix + Cholesky decomp.... done (  0.1 sec)
Calculating Nuclear repulsion               ... done (  0.0 sec) ENN=   1970.142246923818 Eh

SHARK setup successfully completed in   0.9 seconds

Maximum memory used throughout the entire GTOINT-calculation: 49.0 MB


           ************************************************************
           *        Program running with 8 parallel MPI-processes     *
           *              working on a common directory               *
           ************************************************************
-------------------------------------------------------------------------------
                                 ORCA SCF
-------------------------------------------------------------------------------

------------
SCF SETTINGS
------------
Hamiltonian:
 Density Functional     Method          .... DFT(GTOs)
 Exchange Functional    Exchange        .... WB97X-V
 Correlation Functional Correlation     .... WB97X-V
 Gradients option       PostSCFGGA      .... off
 Hybrid DFT is turned on
   Fraction HF Exchange ScalHFX         ....  0.167000
   Scaling of DF-GGA-X  ScalDFX         ....  0.000000
   Scaling of DF-GGA-C  ScalDFC         ....  1.000000
   Scaling of DF-LDA-C  ScalLDAC        ....  1.000000
   Perturbative correction              ....  0.000000
   Density functional embedding theory  .... OFF
 Long-range corrected/Screened/Range-Separated Hybrid DFT is turned on
   Amount of maximum screened exact exchange              ....  0.833000
   Range separation parameter mu (erf(mu*r12)/r12)        ....  0.300000
   NL short-range parameter             ....  6.000000
   NL long-range parameter              ....  0.010000
 RI-approximation to the Coulomb term is turned on
   Number of AuxJ basis functions       .... 1236
   RIJ-COSX (HFX calculated with COS-X)).... on


General Settings:
 Integral files         IntName         .... /burg/berkelbach/users/eav2136/projects/peroxide_dissociation/05_range_separated_functional/wb97x-v-peroxide/wb97x-v-peroxide_opt
 Hartree-Fock type      HFTyp           .... UHF
 Total Charge           Charge          ....    0
 Multiplicity           Mult            ....    1
 Number of Electrons    NEL             ....  174
 Basis Dimension        Dim             ....  778
 Nuclear Repulsion      ENuc            ....   1970.1422469238 Eh

Convergence Acceleration:
 DIIS                   CNVDIIS         .... on
   Start iteration      DIISMaxIt       ....    12
   Startup error        DIISStart       ....  0.200000
   # of expansion vecs  DIISMaxEq       ....     5
   Bias factor          DIISBfac        ....   1.050
   Max. coefficient     DIISMaxC        ....  10.000
 Trust-Rad. Augm. Hess. CNVTRAH         .... off
 SOSCF                  CNVSOSCF        .... off
 Level Shifting         CNVShift        .... on
   Level shift para.    LevelShift      ....    0.2500
   Turn off err/grad.   ShiftErr        ....    0.0010
 Zerner damping         CNVZerner       .... off
 Static damping         CNVDamp         .... on
   Fraction old density DampFac         ....    0.7000
   Max. Damping (<1)    DampMax         ....    0.9800
   Min. Damping (>=0)   DampMin         ....    0.0000
   Turn off err/grad.   DampErr         ....    0.1000
 Fernandez-Rico         CNVRico         .... off

SCF Procedure:
 Maximum # iterations   MaxIter         ....   125
 SCF integral mode      SCFMode         .... Direct
   Integral package                     .... SHARK and LIBINT hybrid scheme
 Reset frequency        DirectResetFreq ....    20
 Integral Threshold     Thresh          ....  2.500e-11 Eh
 Primitive CutOff       TCut            ....  2.500e-12 Eh

Convergence Tolerance:
 Convergence Check Mode ConvCheckMode   .... Total+1el-Energy
 Convergence forced     ConvForced      .... 0
 Energy Change          TolE            ....  1.000e-08 Eh
 1-El. energy change                    ....  1.000e-05 Eh
 DIIS Error             TolErr          ....  5.000e-07


Diagonalization of the overlap matrix:
Smallest eigenvalue                        ... 6.410e-06
Time for diagonalization                   ...    0.104 sec
Threshold for overlap eigenvalues          ... 1.000e-08
Number of eigenvalues below threshold      ... 0
Time for construction of square roots      ...    0.072 sec
Total time needed                          ...    0.179 sec

Time for model grid setup =    0.280 sec

------------------------------
INITIAL GUESS: MODEL POTENTIAL
------------------------------
Loading Hartree-Fock densities                     ... done
Calculating cut-offs                               ... done
Initializing the effective Hamiltonian             ... done
Setting up the integral package (SHARK)            ... done
Starting the Coulomb interaction                   ... done (   0.5 sec)
Reading the grid                                   ... done
Mapping shells                                     ... done
Starting the XC term evaluation                    ... done (   0.3 sec)
  promolecular density results
     # of electrons  =    174.001529421
     EX              =   -117.622368577
     EC              =     -7.625477679
     EX+EC           =   -125.247846256
Transforming the Hamiltonian                       ... done (   0.1 sec)
Diagonalizing the Hamiltonian                      ... done (   0.1 sec)
Back transforming the eigenvectors                 ... done (   0.0 sec)
Now organizing SCF variables                       ... done
                      ------------------
                      INITIAL GUESS DONE (   1.4 sec)
                      ------------------
-------------------
DFT GRID GENERATION
-------------------

General Integration Accuracy     IntAcc      ... 4.388
Radial Grid Type                 RadialGrid  ... OptM3 with GC (2021)
Angular Grid (max. ang.)         AngularGrid ... 4 (Lebedev-302)
Angular grid pruning method      GridPruning ... 4 (adaptive)
Weight generation scheme         WeightScheme... Becke
Basis function cutoff            BFCut       ... 1.0000e-11
Integration weight cutoff        WCut        ... 1.0000e-14
Angular grids for H and He will be reduced by one unit
Partially contracted basis set               ... off
Rotationally invariant grid construction     ... off

Total number of grid points                  ...   179155
Total number of batches                      ...     2817
Average number of points per batch           ...       63
Average number of grid points per atom       ...     4977

------------------
NL GRID GENERATION
------------------

General Integration Accuracy     IntAcc      ... 4.004
Radial Grid Type                 RadialGrid  ... OptM3 with GC (2021)
Angular Grid (max. ang.)         AngularGrid ... 2 (Lebedev-110)
Angular grid pruning method      GridPruning ... 4 (adaptive)
Weight generation scheme         WeightScheme... Becke
Basis function cutoff            BFCut       ... 1.0000e-10
Integration weight cutoff        WCut        ... 1.0000e-14
Angular grids for H and He will be reduced by one unit
Partially contracted basis set               ... off
Rotationally invariant grid construction     ... off

Total number of grid points                  ...    57317
Total number of batches                      ...      916
Average number of points per batch           ...       62
Average number of grid points per atom       ...     1592
Time for grid setup =    1.406 sec

--------------------
COSX GRID GENERATION
--------------------

GRIDX 1
-------
General Integration Accuracy     IntAcc      ... 3.816
Radial Grid Type                 RadialGrid  ... OptM3 with GC (2021)
Angular Grid (max. ang.)         AngularGrid ... 1 (Lebedev-50)
Angular grid pruning method      GridPruning ... 4 (adaptive)
Weight generation scheme         WeightScheme... Becke
Basis function cutoff            BFCut       ... 1.0000e-11
Integration weight cutoff        WCut        ... 1.0000e-14
Angular grids for H and He will be reduced by one unit
Partially contracted basis set               ... on
Rotationally invariant grid construction     ... off

Total number of grid points                  ...    22611
Total number of batches                      ...      371
Average number of points per batch           ...       60
Average number of grid points per atom       ...      628
UseSFitting                                  ... on

GRIDX 2
-------
General Integration Accuracy     IntAcc      ... 4.020
Radial Grid Type                 RadialGrid  ... OptM3 with GC (2021)
Angular Grid (max. ang.)         AngularGrid ... 2 (Lebedev-110)
Angular grid pruning method      GridPruning ... 4 (adaptive)
Weight generation scheme         WeightScheme... Becke
Basis function cutoff            BFCut       ... 1.0000e-11
Integration weight cutoff        WCut        ... 1.0000e-14
Angular grids for H and He will be reduced by one unit
Partially contracted basis set               ... on
Rotationally invariant grid construction     ... off

Total number of grid points                  ...    49564
Total number of batches                      ...      788
Average number of points per batch           ...       62
Average number of grid points per atom       ...     1377
UseSFitting                                  ... on

GRIDX 3
-------
General Integration Accuracy     IntAcc      ... 4.338
Radial Grid Type                 RadialGrid  ... OptM3 with GC (2021)
Angular Grid (max. ang.)         AngularGrid ... 3 (Lebedev-194)
Angular grid pruning method      GridPruning ... 4 (adaptive)
Weight generation scheme         WeightScheme... Becke
Basis function cutoff            BFCut       ... 1.0000e-11
Integration weight cutoff        WCut        ... 1.0000e-14
Angular grids for H and He will be reduced by one unit
Partially contracted basis set               ... on
Rotationally invariant grid construction     ... off

Total number of grid points                  ...   109616
Total number of batches                      ...     1732
Average number of points per batch           ...       63
Average number of grid points per atom       ...     3045
UseSFitting                                  ... on

Time for X-Grid setup             =    1.716 sec

--------------
SCF ITERATIONS
--------------
ITER       Energy         Delta-E        Max-DP      RMS-DP      [F,P]     Damp
               ***  Starting incremental Fock matrix formation  ***
  0  -1714.9375359363   0.000000000000 0.13507425  0.00072463  0.1787901 0.7000
  1  -1715.0931393370  -0.155603400788 0.12085878  0.00066334  0.1178542 0.7000
                               ***Turning on DIIS***
  2  -1715.1706026587  -0.077463321618 0.31144340  0.00170704  0.0817616 0.0000
  3  -1715.3109542772  -0.140351618525 0.02904613  0.00020606  0.0245749 0.0000
  4  -1715.3289038143  -0.017949537096 0.01378408  0.00009271  0.0087430 0.0000
  5  -1715.3304666876  -0.001562873341 0.00858788  0.00005201  0.0042886 0.0000
  6  -1715.3308774181  -0.000410730432 0.00627092  0.00004091  0.0009796 0.0000
               *** Restarting incremental Fock matrix formation ***
                                   *** Resetting DIIS ***
  7  -1715.3310184117  -0.000140993596 0.00167470  0.00001609  0.0005358 0.0000
  8  -1715.3310351968  -0.000016785167 0.00031407  0.00000335  0.0008202 0.0000
  9  -1715.3310456448  -0.000010447967 0.00040481  0.00000373  0.0002488 0.0000
 10  -1715.3310486363  -0.000002991535 0.00019189  0.00000209  0.0001597 0.0000
 11  -1715.3310492884  -0.000000652075 0.00006303  0.00000078  0.0000554 0.0000
 12  -1715.3310493384  -0.000000050009 0.00002957  0.00000027  0.0000159 0.0000
 13  -1715.3310493686  -0.000000030187 0.00004129  0.00000039  0.0000072 0.0000
 14  -1715.3310493876  -0.000000018983 0.00002665  0.00000029  0.0000053 0.0000
 15  -1715.3310494004  -0.000000012848 0.00003362  0.00000028  0.0000028 0.0000
 16  -1715.3310494054  -0.000000004964 0.00002712  0.00000030  0.0000012 0.0000
                            ***DIIS convergence achieved***

               *****************************************************
               *                     SUCCESS                       *
               *           SCF CONVERGED AFTER  17 CYCLES          *
               *****************************************************

Old exchange energy                            =    -51.372147236 Eh
New exchange energy                            =    -51.372120764 Eh
Exchange energy change after final integration =      0.000026473 Eh
Total energy after final integration           =  -1715.331022947 Eh
Final COS-X integration done in                =    47.675 sec

----------------
TOTAL SCF ENERGY
----------------

Total Energy       :        -1715.33102295 Eh          -46676.53012 eV

Components:
Nuclear Repulsion  :         1970.14224692 Eh           53610.29603 eV
Electronic Energy  :        -3685.47326987 Eh         -100286.82616 eV
One Electron Energy:        -6266.73529920 Eh         -170526.53689 eV
Two Electron Energy:         2581.26202933 Eh           70239.71074 eV
Max COSX asymmetry :            0.00000045 Eh               0.00001 eV

Virial components:
Potential Energy   :        -3426.14331164 Eh          -93230.09924 eV
Kinetic Energy     :         1710.81228869 Eh           46553.56911 eV
Virial Ratio       :            2.00264128


DFT components:
N(Alpha)           :       86.999993914178 electrons
N(Beta)            :       86.999993914178 electrons
N(Total)           :      173.999987828355 electrons
E(X)               :     -119.237272206399 Eh       
E(C)               :       -7.660344938760 Eh       
NL Energy, E(C,NL) :        0.660924177798 Eh       
E(XC)              :     -126.236692967362 Eh       
DFET-embed. en.    :        0.000000000000 Eh       

---------------
SCF CONVERGENCE
---------------

  Last Energy change         ...   -1.3897e-08  Tolerance :   1.0000e-08
  Last MAX-Density change    ...    0.0000e+00  Tolerance :   1.0000e-07
  Last RMS-Density change    ...    0.0000e+00  Tolerance :   5.0000e-09
  Last DIIS Error            ...    4.0470e-07  Tolerance :   5.0000e-07

             **** THE GBW FILE WAS UPDATED (/burg/berkelbach/users/eav2136/projects/peroxide_dissociation/05_range_separated_functional/wb97x-v-peroxide/wb97x-v-peroxide_opt.gbw) ****
             **** DENSITY /burg/berkelbach/users/eav2136/projects/peroxide_dissociation/05_range_separated_functional/wb97x-v-peroxide/wb97x-v-peroxide_opt.scfp WAS UPDATED ****
             **** ENERGY FILE WAS UPDATED (/burg/berkelbach/users/eav2136/projects/peroxide_dissociation/05_range_separated_functional/wb97x-v-peroxide/wb97x-v-peroxide_opt.en.tmp) ****
----------------------
UHF SPIN CONTAMINATION
----------------------

Warning: in a DFT calculation there is little theoretical justification to 
         calculate <S**2> as in Hartree-Fock theory. We will do it anyways
         but you should keep in mind that the values have only limited relevance

Expectation value of <S**2>     :     0.000000
Ideal value S*(S+1) for S=0.0   :     0.000000
Deviation                       :     0.000000

             **** THE GBW FILE WAS UPDATED (/burg/berkelbach/users/eav2136/projects/peroxide_dissociation/05_range_separated_functional/wb97x-v-peroxide/wb97x-v-peroxide_opt.gbw) ****
             **** DENSITY /burg/berkelbach/users/eav2136/projects/peroxide_dissociation/05_range_separated_functional/wb97x-v-peroxide/wb97x-v-peroxide_opt.scfp WAS UPDATED ****
----------------
ORBITAL ENERGIES
----------------
                 SPIN UP ORBITALS
  NO   OCC          E(Eh)            E(eV) 
   0   1.0000     -88.881062     -2418.5767 
   1   1.0000     -88.877346     -2418.4755 
   2   1.0000     -19.328048      -525.9429 
   3   1.0000     -19.323065      -525.8073 
   4   1.0000     -19.218478      -522.9614 
   5   1.0000     -19.216283      -522.9016 
   6   1.0000     -10.419771      -283.5364 
   7   1.0000     -10.417124      -283.4643 
   8   1.0000     -10.334064      -281.2042 
   9   1.0000     -10.329310      -281.0748 
  10   1.0000     -10.314877      -280.6821 
  11   1.0000     -10.311881      -280.6006 
  12   1.0000     -10.303474      -280.3718 
  13   1.0000     -10.302934      -280.3571 
  14   1.0000     -10.302161      -280.3361 
  15   1.0000     -10.299799      -280.2718 
  16   1.0000     -10.299229      -280.2563 
  17   1.0000     -10.297697      -280.2146 
  18   1.0000     -10.295974      -280.1677 
  19   1.0000     -10.294496      -280.1275 
  20   1.0000     -10.293471      -280.0996 
  21   1.0000     -10.292083      -280.0618 
  22   1.0000      -8.059812      -219.3186 
  23   1.0000      -8.056083      -219.2172 
  24   1.0000      -6.016060      -163.7053 
  25   1.0000      -6.012349      -163.6043 
  26   1.0000      -6.011761      -163.5883 
  27   1.0000      -6.008073      -163.4880 
  28   1.0000      -6.006920      -163.4566 
  29   1.0000      -6.003140      -163.3537 
  30   1.0000      -1.337372       -36.3918 
  31   1.0000      -1.224028       -33.3075 
  32   1.0000      -1.191990       -32.4357 
  33   1.0000      -1.095090       -29.7989 
  34   1.0000      -1.032287       -28.0900 
  35   1.0000      -1.030377       -28.0380 
  36   1.0000      -0.966366       -26.2962 
  37   1.0000      -0.963738       -26.2246 
  38   1.0000      -0.910461       -24.7749 
  39   1.0000      -0.907783       -24.7020 
  40   1.0000      -0.902956       -24.5707 
  41   1.0000      -0.899964       -24.4893 
  42   1.0000      -0.826917       -22.5015 
  43   1.0000      -0.815000       -22.1773 
  44   1.0000      -0.774920       -21.0866 
  45   1.0000      -0.761697       -20.7268 
  46   1.0000      -0.760069       -20.6825 
  47   1.0000      -0.741004       -20.1637 
  48   1.0000      -0.720548       -19.6071 
  49   1.0000      -0.702041       -19.1035 
  50   1.0000      -0.681011       -18.5312 
  51   1.0000      -0.668805       -18.1991 
  52   1.0000      -0.629202       -17.1214 
  53   1.0000      -0.616776       -16.7833 
  54   1.0000      -0.606686       -16.5088 
  55   1.0000      -0.603926       -16.4337 
  56   1.0000      -0.594364       -16.1735 
  57   1.0000      -0.582243       -15.8436 
  58   1.0000      -0.580160       -15.7870 
  59   1.0000      -0.578631       -15.7453 
  60   1.0000      -0.571399       -15.5486 
  61   1.0000      -0.567198       -15.4342 
  62   1.0000      -0.564314       -15.3558 
  63   1.0000      -0.558209       -15.1896 
  64   1.0000      -0.552134       -15.0243 
  65   1.0000      -0.546623       -14.8744 
  66   1.0000      -0.540304       -14.7024 
  67   1.0000      -0.532319       -14.4851 
  68   1.0000      -0.521129       -14.1807 
  69   1.0000      -0.513279       -13.9670 
  70   1.0000      -0.509331       -13.8596 
  71   1.0000      -0.492297       -13.3961 
  72   1.0000      -0.484353       -13.1799 
  73   1.0000      -0.471332       -12.8256 
  74   1.0000      -0.469646       -12.7797 
  75   1.0000      -0.460717       -12.5367 
  76   1.0000      -0.440506       -11.9868 
  77   1.0000      -0.437326       -11.9002 
  78   1.0000      -0.425676       -11.5832 
  79   1.0000      -0.417757       -11.3677 
  80   1.0000      -0.414904       -11.2901 
  81   1.0000      -0.405744       -11.0408 
  82   1.0000      -0.396009       -10.7760 
  83   1.0000      -0.376083       -10.2337 
  84   1.0000      -0.371641       -10.1129 
  85   1.0000      -0.320270        -8.7150 
  86   1.0000      -0.316193        -8.6041 
  87   0.0000       0.007484         0.2036 
  88   0.0000       0.023516         0.6399 
  89   0.0000       0.046782         1.2730 
  90   0.0000       0.049848         1.3564 
  91   0.0000       0.086436         2.3520 
  92   0.0000       0.087843         2.3903 
  93   0.0000       0.093778         2.5518 
  94   0.0000       0.112139         3.0515 
  95   0.0000       0.118765         3.2318 
  96   0.0000       0.121693         3.3114 
  97   0.0000       0.125991         3.4284 
  98   0.0000       0.137089         3.7304 
  99   0.0000       0.142155         3.8682 
 100   0.0000       0.147259         4.0071 
 101   0.0000       0.151341         4.1182 
 102   0.0000       0.154861         4.2140 
 103   0.0000       0.162720         4.4278 
 104   0.0000       0.165179         4.4948 
 105   0.0000       0.168229         4.5777 
 106   0.0000       0.169888         4.6229 
 107   0.0000       0.173730         4.7274 
 108   0.0000       0.177489         4.8297 
 109   0.0000       0.189197         5.1483 
 110   0.0000       0.193349         5.2613 
 111   0.0000       0.203367         5.5339 
 112   0.0000       0.205934         5.6038 
 113   0.0000       0.210670         5.7326 
 114   0.0000       0.217085         5.9072 
 115   0.0000       0.227198         6.1824 
 116   0.0000       0.231852         6.3090 
 117   0.0000       0.236013         6.4222 
 118   0.0000       0.246416         6.7053 
 119   0.0000       0.251978         6.8567 
 120   0.0000       0.257755         7.0139 
 121   0.0000       0.265539         7.2257 
 122   0.0000       0.272320         7.4102 
 123   0.0000       0.277076         7.5396 
 124   0.0000       0.282438         7.6855 
 125   0.0000       0.285165         7.7597 
 126   0.0000       0.287930         7.8350 
 127   0.0000       0.288801         7.8587 
 128   0.0000       0.294214         8.0060 
 129   0.0000       0.301823         8.2130 
 130   0.0000       0.303116         8.2482 
 131   0.0000       0.314329         8.5533 
 132   0.0000       0.318503         8.6669 
 133   0.0000       0.321532         8.7493 
 134   0.0000       0.324874         8.8403 
 135   0.0000       0.327507         8.9119 
 136   0.0000       0.328537         8.9399 
 137   0.0000       0.329860         8.9760 
 138   0.0000       0.336204         9.1486 
 139   0.0000       0.340871         9.2756 
 140   0.0000       0.346144         9.4191 
 141   0.0000       0.357405         9.7255 
 142   0.0000       0.362466         9.8632 
 143   0.0000       0.366975         9.9859 
 144   0.0000       0.374288        10.1849 
 145   0.0000       0.376899        10.2559 
 146   0.0000       0.381745        10.3878 
 147   0.0000       0.393477        10.7070 
 148   0.0000       0.395205        10.7541 
 149   0.0000       0.398849        10.8532 
 150   0.0000       0.404886        11.0175 
 151   0.0000       0.409404        11.1404 
 152   0.0000       0.412262        11.2182 
 153   0.0000       0.416675        11.3383 
 154   0.0000       0.418096        11.3770 
 155   0.0000       0.423690        11.5292 
 156   0.0000       0.428066        11.6483 
 157   0.0000       0.436344        11.8735 
 158   0.0000       0.441661        12.0182 
 159   0.0000       0.444285        12.0896 
 160   0.0000       0.447604        12.1799 
 161   0.0000       0.449084        12.2202 
 162   0.0000       0.453074        12.3288 
 163   0.0000       0.458537        12.4774 
 164   0.0000       0.464078        12.6282 
 165   0.0000       0.469054        12.7636 
 166   0.0000       0.476237        12.9591 
 167   0.0000       0.478133        13.0107 
 168   0.0000       0.481673        13.1070 
 169   0.0000       0.483911        13.1679 
 170   0.0000       0.486688        13.2435 
 171   0.0000       0.490210        13.3393 
 172   0.0000       0.500520        13.6199 
 173   0.0000       0.502330        13.6691 
 174   0.0000       0.506131        13.7725 
 175   0.0000       0.510049        13.8791 
 176   0.0000       0.516584        14.0570 
 177   0.0000       0.518983        14.1223 
 178   0.0000       0.524744        14.2790 
 179   0.0000       0.531736        14.4693 
 180   0.0000       0.533098        14.5063 
 181   0.0000       0.543342        14.7851 
 182   0.0000       0.547603        14.9010 
 183   0.0000       0.548917        14.9368 
 184   0.0000       0.552450        15.0329 
 185   0.0000       0.555214        15.1081 
 186   0.0000       0.560798        15.2601 
 187   0.0000       0.564481        15.3603 
 188   0.0000       0.569484        15.4964 
 189   0.0000       0.575365        15.6565 
 190   0.0000       0.581151        15.8139 
 191   0.0000       0.585354        15.9283 
 192   0.0000       0.590426        16.0663 
 193   0.0000       0.599739        16.3197 
 194   0.0000       0.605442        16.4749 
 195   0.0000       0.610289        16.6068 
 196   0.0000       0.611408        16.6372 
 197   0.0000       0.622411        16.9367 
 198   0.0000       0.627061        17.0632 
 199   0.0000       0.632265        17.2048 
 200   0.0000       0.634446        17.2641 
 201   0.0000       0.636819        17.3287 
 202   0.0000       0.639962        17.4142 
 203   0.0000       0.652976        17.7684 
 204   0.0000       0.661463        17.9993 
 205   0.0000       0.671237        18.2653 
 206   0.0000       0.681221        18.5370 
 207   0.0000       0.685634        18.6570 
 208   0.0000       0.690298        18.7840 
 209   0.0000       0.696613        18.9558 
 210   0.0000       0.705464        19.1967 
 211   0.0000       0.712822        19.3969 
 212   0.0000       0.717339        19.5198 
 213   0.0000       0.723906        19.6985 
 214   0.0000       0.730375        19.8745 
 215   0.0000       0.738797        20.1037 
 216   0.0000       0.749477        20.3943 
 217   0.0000       0.759430        20.6651 
 218   0.0000       0.765139        20.8205 
 219   0.0000       0.767245        20.8778 
 220   0.0000       0.770781        20.9740 
 221   0.0000       0.779708        21.2169 
 222   0.0000       0.784801        21.3555 
 223   0.0000       0.789292        21.4777 
 224   0.0000       0.790438        21.5089 
 225   0.0000       0.799813        21.7640 
 226   0.0000       0.802748        21.8439 
 227   0.0000       0.807769        21.9805 
 228   0.0000       0.815985        22.2041 
 229   0.0000       0.816727        22.2243 
 230   0.0000       0.826081        22.4788 
 231   0.0000       0.836766        22.7696 
 232   0.0000       0.844579        22.9822 
 233   0.0000       0.847852        23.0712 
 234   0.0000       0.854853        23.2617 
 235   0.0000       0.857630        23.3373 
 236   0.0000       0.864380        23.5210 
 237   0.0000       0.866906        23.5897 
 238   0.0000       0.871823        23.7235 
 239   0.0000       0.879267        23.9261 
 240   0.0000       0.881501        23.9869 
 241   0.0000       0.883736        24.0477 
 242   0.0000       0.891370        24.2554 
 243   0.0000       0.902447        24.5568 
 244   0.0000       0.904700        24.6181 
 245   0.0000       0.909373        24.7453 
 246   0.0000       0.919725        25.0270 
 247   0.0000       0.936660        25.4878 
 248   0.0000       0.939574        25.5671 
 249   0.0000       0.943716        25.6798 
 250   0.0000       0.954080        25.9618 
 251   0.0000       0.959575        26.1114 
 252   0.0000       0.962023        26.1780 
 253   0.0000       0.971972        26.4487 
 254   0.0000       0.975512        26.5450 
 255   0.0000       0.984527        26.7903 
 256   0.0000       0.994258        27.0551 
 257   0.0000       0.998906        27.1816 
 258   0.0000       1.003363        27.3029 
 259   0.0000       1.009137        27.4600 
 260   0.0000       1.019170        27.7330 
 261   0.0000       1.027335        27.9552 
 262   0.0000       1.033438        28.1213 
 263   0.0000       1.040902        28.3244 
 264   0.0000       1.048996        28.5446 
 265   0.0000       1.052513        28.6403 
 266   0.0000       1.059395        28.8276 
 267   0.0000       1.066699        29.0263 
 268   0.0000       1.073914        29.2227 
 269   0.0000       1.087851        29.6019 
 270   0.0000       1.089602        29.6496 
 271   0.0000       1.099641        29.9228 
 272   0.0000       1.102788        30.0084 
 273   0.0000       1.114159        30.3178 
 274   0.0000       1.118454        30.4347 
 275   0.0000       1.126015        30.6404 
 276   0.0000       1.134828        30.8802 
 277   0.0000       1.144298        31.1379 
 278   0.0000       1.162502        31.6333 
 279   0.0000       1.165384        31.7117 
 280   0.0000       1.170694        31.8562 
 281   0.0000       1.177848        32.0509 
 282   0.0000       1.187153        32.3041 
 283   0.0000       1.197087        32.5744 
 284   0.0000       1.220582        33.2137 
 285   0.0000       1.222962        33.2785 
 286   0.0000       1.240441        33.7541 
 287   0.0000       1.249372        33.9971 
 288   0.0000       1.260680        34.3049 
 289   0.0000       1.266548        34.4645 
 290   0.0000       1.283270        34.9196 
 291   0.0000       1.297130        35.2967 
 292   0.0000       1.305980        35.5375 
 293   0.0000       1.310876        35.6708 
 294   0.0000       1.317150        35.8415 
 295   0.0000       1.324282        36.0355 
 296   0.0000       1.325846        36.0781 
 297   0.0000       1.331678        36.2368 
 298   0.0000       1.341556        36.5056 
 299   0.0000       1.352136        36.7935 
 300   0.0000       1.366662        37.1888 
 301   0.0000       1.371144        37.3107 
 302   0.0000       1.382197        37.6115 
 303   0.0000       1.384618        37.6774 
 304   0.0000       1.392393        37.8889 
 305   0.0000       1.396511        38.0010 
 306   0.0000       1.408347        38.3231 
 307   0.0000       1.421342        38.6767 
 308   0.0000       1.425190        38.7814 
 309   0.0000       1.436200        39.0810 
 310   0.0000       1.453188        39.5432 
 311   0.0000       1.463618        39.8271 
 312   0.0000       1.483157        40.3588 
 313   0.0000       1.488142        40.4944 
 314   0.0000       1.511435        41.1282 
 315   0.0000       1.517408        41.2908 
 316   0.0000       1.531906        41.6853 
 317   0.0000       1.536019        41.7972 
 318   0.0000       1.541218        41.9387 
 319   0.0000       1.545406        42.0526 
 320   0.0000       1.558138        42.3991 
 321   0.0000       1.559167        42.4271 
 322   0.0000       1.575232        42.8642 
 323   0.0000       1.579243        42.9734 
 324   0.0000       1.590427        43.2777 
 325   0.0000       1.593726        43.3675 
 326   0.0000       1.597576        43.4722 
 327   0.0000       1.600241        43.5448 
 328   0.0000       1.604902        43.6716 
 329   0.0000       1.606853        43.7247 
 330   0.0000       1.609884        43.8072 
 331   0.0000       1.612549        43.8797 
 332   0.0000       1.618085        44.0303 
 333   0.0000       1.622551        44.1519 
 334   0.0000       1.630369        44.3646 
 335   0.0000       1.636705        44.5370 
 336   0.0000       1.640783        44.6480 
 337   0.0000       1.646931        44.8153 
 338   0.0000       1.647942        44.8428 
 339   0.0000       1.652620        44.9701 
 340   0.0000       1.659473        45.1566 
 341   0.0000       1.667737        45.3814 
 342   0.0000       1.672641        45.5149 
 343   0.0000       1.676794        45.6279 
 344   0.0000       1.682841        45.7924 
 345   0.0000       1.690089        45.9896 
 346   0.0000       1.697613        46.1944 
 347   0.0000       1.701563        46.3019 
 348   0.0000       1.706864        46.4461 
 349   0.0000       1.713492        46.6265 
 350   0.0000       1.715259        46.6746 
 351   0.0000       1.721929        46.8561 
 352   0.0000       1.722549        46.8729 
 353   0.0000       1.737439        47.2781 
 354   0.0000       1.752471        47.6872 
 355   0.0000       1.758023        47.8382 
 356   0.0000       1.763662        47.9917 
 357   0.0000       1.769287        48.1447 
 358   0.0000       1.776295        48.3354 
 359   0.0000       1.778428        48.3935 
 360   0.0000       1.781640        48.4809 
 361   0.0000       1.786117        48.6027 
 362   0.0000       1.792542        48.7775 
 363   0.0000       1.799024        48.9539 
 364   0.0000       1.812700        49.3261 
 365   0.0000       1.816980        49.4425 
 366   0.0000       1.823546        49.6212 
 367   0.0000       1.832945        49.8770 
 368   0.0000       1.845102        50.2078 
 369   0.0000       1.850547        50.3559 
 370   0.0000       1.876445        51.0607 
 371   0.0000       1.881621        51.2015 
 372   0.0000       1.892926        51.5091 
 373   0.0000       1.908843        51.9423 
 374   0.0000       1.910406        51.9848 
 375   0.0000       1.916695        52.1559 
 376   0.0000       1.918984        52.2182 
 377   0.0000       1.923813        52.3496 
 378   0.0000       1.925922        52.4070 
 379   0.0000       1.934758        52.6475 
 380   0.0000       1.938779        52.7569 
 381   0.0000       1.946541        52.9681 
 382   0.0000       1.949937        53.0605 
 383   0.0000       1.953814        53.1660 
 384   0.0000       1.961041        53.3627 
 385   0.0000       1.961831        53.3841 
 386   0.0000       1.970673        53.6247 
 387   0.0000       1.973286        53.6958 
 388   0.0000       1.975559        53.7577 
 389   0.0000       1.984147        53.9914 
 390   0.0000       1.998620        54.3852 
 391   0.0000       2.004054        54.5331 
 392   0.0000       2.012513        54.7633 
 393   0.0000       2.027833        55.1801 
 394   0.0000       2.044689        55.6388 
 395   0.0000       2.060415        56.0667 
 396   0.0000       2.065882        56.2155 
 397   0.0000       2.070018        56.3280 
 398   0.0000       2.075831        56.4862 
 399   0.0000       2.094854        57.0039 
 400   0.0000       2.111902        57.4678 
 401   0.0000       2.118436        57.6456 
 402   0.0000       2.127969        57.9050 
 403   0.0000       2.131772        58.0085 
 404   0.0000       2.147418        58.4342 
 405   0.0000       2.156740        58.6879 
 406   0.0000       2.168527        59.0086 
 407   0.0000       2.177923        59.2643 
 408   0.0000       2.181324        59.3568 
 409   0.0000       2.188757        59.5591 
 410   0.0000       2.193871        59.6983 
 411   0.0000       2.198215        59.8165 
 412   0.0000       2.199780        59.8590 
 413   0.0000       2.209111        60.1130 
 414   0.0000       2.213740        60.2389 
 415   0.0000       2.225512        60.5593 
 416   0.0000       2.239768        60.9472 
 417   0.0000       2.253403        61.3182 
 418   0.0000       2.256664        61.4070 
 419   0.0000       2.263100        61.5821 
 420   0.0000       2.270991        61.7968 
 421   0.0000       2.276547        61.9480 
 422   0.0000       2.280414        62.0532 
 423   0.0000       2.284171        62.1555 
 424   0.0000       2.293843        62.4187 
 425   0.0000       2.305448        62.7344 
 426   0.0000       2.316080        63.0237 
 427   0.0000       2.323567        63.2275 
 428   0.0000       2.326072        63.2956 
 429   0.0000       2.328524        63.3624 
 430   0.0000       2.337038        63.5940 
 431   0.0000       2.368311        64.4450 
 432   0.0000       2.377102        64.6842 
 433   0.0000       2.383143        64.8486 
 434   0.0000       2.390618        65.0520 
 435   0.0000       2.397952        65.2516 
 436   0.0000       2.406049        65.4719 
 437   0.0000       2.427987        66.0689 
 438   0.0000       2.435128        66.2632 
 439   0.0000       2.444443        66.5167 
 440   0.0000       2.445301        66.5400 
 441   0.0000       2.455022        66.8045 
 442   0.0000       2.479147        67.4610 
 443   0.0000       2.482185        67.5437 
 444   0.0000       2.491637        67.8009 
 445   0.0000       2.502208        68.0886 
 446   0.0000       2.505092        68.1670 
 447   0.0000       2.512506        68.3688 
 448   0.0000       2.515606        68.4531 
 449   0.0000       2.535507        68.9946 
 450   0.0000       2.544519        69.2399 
 451   0.0000       2.565717        69.8167 
 452   0.0000       2.592560        70.5471 
 453   0.0000       2.609546        71.0093 
[...]
      pz      :     0.000000  p :     0.000000
      px      :     0.000000
      py      :     0.000000
      dz2     :     0.000000  d :     0.000000
      dxz     :     0.000000
      dyz     :     0.000000
      dx2y2   :     0.000000
      dxy     :     0.000000
      f0      :     0.000000  f :     0.000000
      f+1     :     0.000000
      f-1     :     0.000000
      f+2     :     0.000000
      f-2     :     0.000000
      f+3     :     0.000000
      f-3     :     0.000000
  5 C s       :     0.000000  s :     0.000000
      pz      :     0.000000  p :     0.000000
      px      :     0.000000
      py      :     0.000000
      dz2     :     0.000000  d :     0.000000
      dxz     :     0.000000
      dyz     :     0.000000
      dx2y2   :     0.000000
      dxy     :     0.000000
      f0      :     0.000000  f :     0.000000
      f+1     :     0.000000
      f-1     :     0.000000
      f+2     :     0.000000
      f-2     :     0.000000
      f+3     :     0.000000
      f-3     :     0.000000
  6 C s       :     0.000000  s :     0.000000
      pz      :     0.000000  p :     0.000000
      px      :     0.000000
      py      :     0.000000
      dz2     :     0.000000  d :     0.000000
      dxz     :     0.000000
      dyz     :     0.000000
      dx2y2   :     0.000000
      dxy     :     0.000000
      f0      :     0.000000  f :     0.000000
      f+1     :     0.000000
      f-1     :     0.000000
      f+2     :     0.000000
      f-2     :     0.000000
      f+3     :     0.000000
      f-3     :     0.000000
  7 C s       :     0.000000  s :     0.000000
      pz      :     0.000000  p :     0.000000
      px      :     0.000000
      py      :     0.000000
      dz2     :     0.000000  d :     0.000000
      dxz     :     0.000000
      dyz     :     0.000000
      dx2y2   :     0.000000
      dxy     :     0.000000
      f0      :     0.000000  f :     0.000000
      f+1     :     0.000000
      f-1     :     0.000000
      f+2     :     0.000000
      f-2     :     0.000000
      f+3     :     0.000000
      f-3     :     0.000000
  8 C s       :     0.000000  s :     0.000000
      pz      :     0.000000  p :     0.000000
      px      :     0.000000
      py      :     0.000000
      dz2     :     0.000000  d :     0.000000
      dxz     :     0.000000
      dyz     :     0.000000
      dx2y2   :     0.000000
      dxy     :     0.000000
      f0      :     0.000000  f :     0.000000
      f+1     :     0.000000
      f-1     :     0.000000
      f+2     :     0.000000
      f-2     :     0.000000
      f+3     :     0.000000
      f-3     :     0.000000
  9 O s       :     0.000000  s :     0.000000
      pz      :     0.000000  p :     0.000000
      px      :     0.000000
      py      :     0.000000
      dz2     :     0.000000  d :     0.000000
      dxz     :     0.000000
      dyz     :     0.000000
      dx2y2   :     0.000000
      dxy     :     0.000000
      f0      :     0.000000  f :     0.000000
      f+1     :     0.000000
      f-1     :     0.000000
      f+2     :     0.000000
      f-2     :     0.000000
      f+3     :     0.000000
      f-3     :     0.000000
 10 O s       :     0.000000  s :     0.000000
      pz      :     0.000000  p :     0.000000
      px      :     0.000000
      py      :     0.000000
      dz2     :     0.000000  d :     0.000000
      dxz     :     0.000000
      dyz     :     0.000000
      dx2y2   :     0.000000
      dxy     :     0.000000
      f0      :     0.000000  f :     0.000000
      f+1     :     0.000000
      f-1     :     0.000000
      f+2     :     0.000000
      f-2     :     0.000000
      f+3     :     0.000000
      f-3     :     0.000000
 11 O s       :     0.000000  s :     0.000000
      pz      :     0.000000  p :     0.000000
      px      :     0.000000
      py      :     0.000000
      dz2     :     0.000000  d :     0.000000
      dxz     :     0.000000
      dyz     :     0.000000
      dx2y2   :     0.000000
      dxy     :     0.000000
      f0      :     0.000000  f :     0.000000
      f+1     :     0.000000
      f-1     :     0.000000
      f+2     :     0.000000
      f-2     :     0.000000
      f+3     :     0.000000
      f-3     :     0.000000
 12 C s       :     0.000000  s :     0.000000
      pz      :     0.000000  p :     0.000000
      px      :     0.000000
      py      :     0.000000
      dz2     :     0.000000  d :     0.000000
      dxz     :     0.000000
      dyz     :     0.000000
      dx2y2   :     0.000000
      dxy     :     0.000000
      f0      :     0.000000  f :     0.000000
      f+1     :     0.000000
      f-1     :     0.000000
      f+2     :     0.000000
      f-2     :     0.000000
      f+3     :     0.000000
      f-3     :     0.000000
 13 C s       :     0.000000  s :     0.000000
      pz      :     0.000000  p :     0.000000
      px      :     0.000000
      py      :     0.000000
      dz2     :     0.000000  d :     0.000000
      dxz     :     0.000000
      dyz     :     0.000000
      dx2y2   :     0.000000
      dxy     :     0.000000
      f0      :     0.000000  f :     0.000000
      f+1     :     0.000000
      f-1     :     0.000000
      f+2     :     0.000000
      f-2     :     0.000000
      f+3     :     0.000000
      f-3     :     0.000000
 14 O s       :     0.000000  s :     0.000000
      pz      :     0.000000  p :     0.000000
      px      :     0.000000
      py      :     0.000000
      dz2     :     0.000000  d :     0.000000
      dxz     :     0.000000
      dyz     :     0.000000
      dx2y2   :     0.000000
      dxy     :     0.000000
      f0      :     0.000000  f :     0.000000
      f+1     :     0.000000
      f-1     :     0.000000
      f+2     :     0.000000
      f-2     :     0.000000
      f+3     :     0.000000
      f-3     :     0.000000
 15 C s       :     0.000000  s :     0.000000
      pz      :     0.000000  p :     0.000000
      px      :     0.000000
      py      :     0.000000
      dz2     :     0.000000  d :     0.000000
      dxz     :     0.000000
      dyz     :     0.000000
      dx2y2   :     0.000000
      dxy     :     0.000000
      f0      :     0.000000  f :     0.000000
      f+1     :     0.000000
      f-1     :     0.000000
      f+2     :     0.000000
      f-2     :     0.000000
      f+3     :     0.000000
      f-3     :     0.000000
 16 C s       :     0.000000  s :     0.000000
      pz      :     0.000000  p :     0.000000
      px      :     0.000000
      py      :     0.000000
      dz2     :     0.000000  d :     0.000000
      dxz     :     0.000000
      dyz     :     0.000000
      dx2y2   :     0.000000
      dxy     :     0.000000
      f0      :     0.000000  f :     0.000000
      f+1     :     0.000000
      f-1     :     0.000000
      f+2     :     0.000000
      f-2     :     0.000000
      f+3     :     0.000000
      f-3     :     0.000000
 17 C s       :     0.000000  s :     0.000000
      pz      :     0.000000  p :     0.000000
      px      :     0.000000
      py      :     0.000000
      dz2     :     0.000000  d :     0.000000
      dxz     :     0.000000
      dyz     :     0.000000
      dx2y2   :     0.000000
      dxy     :     0.000000
      f0      :     0.000000  f :     0.000000
      f+1     :     0.000000
      f-1     :     0.000000
      f+2     :     0.000000
      f-2     :     0.000000
      f+3     :     0.000000
      f-3     :     0.000000
 18 C s       :     0.000000  s :     0.000000
      pz      :     0.000000  p :     0.000000
      px      :     0.000000
      py      :     0.000000
      dz2     :     0.000000  d :     0.000000
      dxz     :     0.000000
      dyz     :     0.000000
      dx2y2   :     0.000000
      dxy     :     0.000000
      f0      :     0.000000  f :     0.000000
      f+1     :     0.000000
      f-1     :     0.000000
      f+2     :     0.000000
      f-2     :     0.000000
      f+3     :     0.000000
      f-3     :     0.000000
 19 C s       :     0.000000  s :     0.000000
      pz      :     0.000000  p :     0.000000
      px      :     0.000000
      py      :     0.000000
      dz2     :     0.000000  d :     0.000000
      dxz     :     0.000000
      dyz     :     0.000000
      dx2y2   :     0.000000
      dxy     :     0.000000
      f0      :     0.000000  f :     0.000000
      f+1     :     0.000000
      f-1     :     0.000000
      f+2     :     0.000000
      f-2     :     0.000000
      f+3     :     0.000000
      f-3     :     0.000000
 20 S s       :     0.000000  s :     0.000000
      pz      :     0.000000  p :     0.000000
      px      :     0.000000
      py      :     0.000000
      dz2     :     0.000000  d :     0.000000
      dxz     :     0.000000
      dyz     :     0.000000
      dx2y2   :     0.000000
      dxy     :     0.000000
      f0      :     0.000000  f :     0.000000
      f+1     :     0.000000
      f-1     :     0.000000
      f+2     :     0.000000
      f-2     :     0.000000
      f+3     :     0.000000
      f-3     :     0.000000
 21 C s       :     0.000000  s :     0.000000
      pz      :     0.000000  p :     0.000000
      px      :     0.000000
      py      :     0.000000
      dz2     :     0.000000  d :     0.000000
      dxz     :     0.000000
      dyz     :     0.000000
      dx2y2   :     0.000000
      dxy     :     0.000000
      f0      :     0.000000  f :     0.000000
      f+1     :     0.000000
      f-1     :     0.000000
      f+2     :     0.000000
      f-2     :     0.000000
      f+3     :     0.000000
      f-3     :     0.000000
 22 H s       :     0.000000  s :     0.000000
      pz      :     0.000000  p :     0.000000
      px      :     0.000000
      py      :     0.000000
 23 H s       :     0.000000  s :     0.000000
      pz      :     0.000000  p :     0.000000
      px      :     0.000000
      py      :     0.000000
 24 H s       :     0.000000  s :     0.000000
      pz      :     0.000000  p :     0.000000
      px      :     0.000000
      py      :     0.000000
 25 H s       :     0.000000  s :     0.000000
      pz      :     0.000000  p :     0.000000
      px      :     0.000000
      py      :     0.000000
 26 H s       :     0.000000  s :     0.000000
      pz      :     0.000000  p :     0.000000
      px      :     0.000000
      py      :     0.000000
 27 H s       :     0.000000  s :     0.000000
      pz      :     0.000000  p :     0.000000
      px      :     0.000000
      py      :     0.000000
 28 H s       :     0.000000  s :     0.000000
      pz      :     0.000000  p :     0.000000
      px      :     0.000000
      py      :     0.000000
 29 H s       :     0.000000  s :     0.000000
      pz      :     0.000000  p :     0.000000
      px      :     0.000000
      py      :     0.000000
 30 H s       :     0.000000  s :     0.000000
      pz      :     0.000000  p :     0.000000
      px      :     0.000000
      py      :     0.000000
 31 H s       :     0.000000  s :     0.000000
      pz      :     0.000000  p :     0.000000
      px      :     0.000000
      py      :     0.000000
 32 H s       :     0.000000  s :     0.000000
      pz      :     0.000000  p :     0.000000
      px      :     0.000000
      py      :     0.000000
 33 H s       :     0.000000  s :     0.000000
      pz      :     0.000000  p :     0.000000
      px      :     0.000000
      py      :     0.000000
 34 H s       :     0.000000  s :     0.000000
      pz      :     0.000000  p :     0.000000
      px      :     0.000000
      py      :     0.000000
 35 H s       :     0.000000  s :     0.000000
      pz      :     0.000000  p :     0.000000
      px      :     0.000000
      py      :     0.000000


                      *****************************
                      * MAYER POPULATION ANALYSIS *
                      *****************************

  NA   - Mulliken gross atomic population
  ZA   - Total nuclear charge
  QA   - Mulliken gross atomic charge
  VA   - Mayer's total valence
  BVA  - Mayer's bonded valence
  FA   - Mayer's free valence

  ATOM       NA         ZA         QA         VA         BVA        FA
  0 C      6.3877     6.0000    -0.3877     3.9709     3.9709     0.0000
  1 S     16.0053    16.0000    -0.0053     2.4012     2.4012     0.0000
  2 C      5.8666     6.0000     0.1334     3.9158     3.9158    -0.0000
  3 C      6.2016     6.0000    -0.2016     3.8720     3.8720    -0.0000
  4 C      6.2209     6.0000    -0.2209     3.9923     3.9923     0.0000
  5 C      5.9069     6.0000     0.0931     3.6967     3.6967    -0.0000
  6 C      6.2136     6.0000    -0.2136     4.0445     4.0445    -0.0000
  7 C      6.1537     6.0000    -0.1537     3.8797     3.8797     0.0000
  8 C      5.7530     6.0000     0.2470     4.3499     4.3499    -0.0000
  9 O      8.0678     8.0000    -0.0678     2.0114     2.0114    -0.0000
 10 O      8.2443     8.0000    -0.2443     2.2776     2.2776    -0.0000
 11 O      8.1136     8.0000    -0.1136     2.0417     2.0417    -0.0000
 12 C      5.7502     6.0000     0.2498     4.3604     4.3604     0.0000
 13 C      5.9217     6.0000     0.0783     3.6208     3.6208    -0.0000
 14 O      8.2618     8.0000    -0.2618     2.2475     2.2475     0.0000
 15 C      6.2042     6.0000    -0.2042     4.0221     4.0221     0.0000
 16 C      6.1417     6.0000    -0.1417     3.8654     3.8654     0.0000
 17 C      5.8561     6.0000     0.1439     3.9098     3.9098    -0.0000
 18 C      6.2077     6.0000    -0.2077     3.8785     3.8785    -0.0000
 19 C      6.2140     6.0000    -0.2140     4.0365     4.0365    -0.0000
 20 S     15.9979    16.0000     0.0021     2.4157     2.4157     0.0000
 21 C      6.3860     6.0000    -0.3860     3.9701     3.9701    -0.0000
 22 H      0.8422     1.0000     0.1578     0.9687     0.9687     0.0000
 23 H      0.8549     1.0000     0.1451     0.9596     0.9596     0.0000
 24 H      0.8539     1.0000     0.1461     0.9580     0.9580     0.0000
 25 H      0.8631     1.0000     0.1369     0.9736     0.9736    -0.0000
 26 H      0.8264     1.0000     0.1736     0.9830     0.9830     0.0000
 27 H      0.8511     1.0000     0.1489     0.9734     0.9734     0.0000
 28 H      0.8655     1.0000     0.1345     0.9768     0.9768     0.0000
 29 H      0.8422     1.0000     0.1578     0.9824     0.9824    -0.0000
 30 H      0.8649     1.0000     0.1351     0.9776     0.9776     0.0000
 31 H      0.8637     1.0000     0.1363     0.9732     0.9732    -0.0000
 32 H      0.8448     1.0000     0.1552     0.9776     0.9776    -0.0000
 33 H      0.8406     1.0000     0.1594     0.9688     0.9688     0.0000
 34 H      0.8566     1.0000     0.1434     0.9597     0.9597    -0.0000
 35 H      0.8538     1.0000     0.1462     0.9586     0.9586    -0.0000

  Mayer bond orders larger than 0.100000
B(  0-C ,  1-S ) :   1.0752 B(  0-C , 22-H ) :   0.9585 B(  0-C , 23-H ) :   0.9604 
B(  0-C , 24-H ) :   0.9598 B(  1-S ,  2-C ) :   1.1979 B(  2-C ,  3-C ) :   1.3048 
B(  2-C ,  7-C ) :   1.3290 B(  3-C ,  4-C ) :   1.4566 B(  3-C , 25-H ) :   0.9629 
B(  4-C ,  5-C ) :   1.3678 B(  4-C , 26-H ) :   0.9205 B(  5-C ,  6-C ) :   1.3821 
B(  5-C ,  8-C ) :   0.9370 B(  6-C ,  7-C ) :   1.4744 B(  6-C , 27-H ) :   0.9662 
B(  7-C , 28-H ) :   0.9700 B(  8-C ,  9-O ) :   1.1056 B(  8-C , 10-O ) :   2.2066 
B(  9-O , 11-O ) :   0.8275 B( 11-O , 12-C ) :   1.1197 B( 12-C , 13-C ) :   0.9515 
B( 12-C , 14-O ) :   2.1496 B( 13-C , 15-C ) :   1.3581 B( 13-C , 19-C ) :   1.3849 
B( 15-C , 16-C ) :   1.4838 B( 15-C , 29-H ) :   0.9568 B( 16-C , 17-C ) :   1.3091 
B( 16-C , 30-H ) :   0.9722 B( 17-C , 18-C ) :   1.3074 B( 17-C , 20-S ) :   1.2099 
B( 18-C , 19-C ) :   1.4544 B( 18-C , 31-H ) :   0.9600 B( 19-C , 32-H ) :   0.9553 
B( 20-S , 21-C ) :   1.0748 B( 21-C , 33-H ) :   0.9582 B( 21-C , 34-H ) :   0.9606 
B( 21-C , 35-H ) :   0.9599 

-------
TIMINGS
-------

Total SCF time: 0 days 0 hours 4 min 37 sec 

Total time                  ....     277.867 sec
Sum of individual times     ....     275.572 sec  ( 99.2%)

Fock matrix formation       ....     266.964 sec  ( 96.1%)
  Split-RI-J                ....       8.698 sec  (  3.3% of F)
  Chain of spheres X        ....     190.302 sec  ( 71.3% of F)
  XC integration            ....      65.510 sec  ( 24.5% of F)
    Basis function eval.    ....       4.655 sec  (  7.1% of XC)
    Density eval.           ....       9.570 sec  ( 14.6% of XC)
    XC-Functional eval.     ....      44.727 sec  ( 68.3% of XC)
    XC-Potential eval.      ....       4.340 sec  (  6.6% of XC)
Diagonalization             ....       3.264 sec  (  1.2%)
Density matrix formation    ....       0.139 sec  (  0.1%)
Population analysis         ....       0.373 sec  (  0.1%)
Initial guess               ....       0.456 sec  (  0.2%)
Orbital Transformation      ....       0.000 sec  (  0.0%)
Orbital Orthonormalization  ....       0.399 sec  (  0.1%)
DIIS solution               ....       1.302 sec  (  0.5%)
Grid generation             ....       3.073 sec  (  1.1%)

Maximum memory used throughout the entire SCF-calculation: 183.8 MB

-------------------------   --------------------
FINAL SINGLE POINT ENERGY     -1715.331368555848
-------------------------   --------------------

                                *** OPTIMIZATION RUN DONE ***

                            ***************************************
                            *     ORCA property calculations      *
                            ***************************************

                                    ---------------------
                                    Active property flags
                                    ---------------------
   (+) Dipole Moment


------------------------------------------------------------------------------
                       ORCA ELECTRIC PROPERTIES CALCULATION
------------------------------------------------------------------------------

Dipole Moment Calculation                       ... on
Quadrupole Moment Calculation                   ... off
Polarizability Calculation                      ... off
GBWName                                         ... /burg/berkelbach/users/eav2136/projects/peroxide_dissociation/05_range_separated_functional/wb97x-v-peroxide/wb97x-v-peroxide_opt.gbw
Electron density                                ... /burg/berkelbach/users/eav2136/projects/peroxide_dissociation/05_range_separated_functional/wb97x-v-peroxide/wb97x-v-peroxide_opt.scfp
The origin for moment calculation is the CENTER OF MASS  = (-0.245098,  3.468600  5.653935)

-------------
DIPOLE MOMENT
-------------
                                X             Y             Z
Electronic contribution:     -0.92234      -9.14139     -14.63985
Nuclear contribution   :      1.30775      10.30686      17.31634
                        -----------------------------------------
Total Dipole Moment    :      0.38542       1.16548       2.67649
                        -----------------------------------------
Magnitude (a.u.)       :      2.94457
Magnitude (Debye)      :      7.48451



--------------------
Rotational spectrum 
--------------------
 
Rotational constants in cm-1:     0.008971     0.005560     0.003807 
Rotational constants in MHz :   268.930497   166.692027   114.138470 

 Dipole components along the rotational axes: 
x,y,z [a.u.] :     1.926389     2.210808    -0.268061 
x,y,z [Debye]:     4.896491     5.619426    -0.681356 

 

Timings for individual modules:

Sum of individual times         ...     5574.883 sec (=  92.915 min)
GTO integral calculation        ...       20.474 sec (=   0.341 min)   0.4 %
SCF iterations                  ...     4576.313 sec (=  76.272 min)  82.1 %
SCF Gradient evaluation         ...      976.638 sec (=  16.277 min)  17.5 %
Geometry relaxation             ...        1.458 sec (=   0.024 min)   0.0 %
                             ****ORCA TERMINATED NORMALLY****
TOTAL RUN TIME: 0 days 1 hours 33 minutes 9 seconds 267 msec
