Job execution start: Fri Apr 22 11:33:34 EDT 2022
Shared library path: /cm/shared/apps/cuda11.0/toolkit/11.0.3/compat:/burg/berkelbach/users/eav2136/builds/orca/5.0.3/orca:/cm/shared/apps/ucx/1.8.1/lib64:/cm/local/apps/cuda/libs/current/lib64:/cm/shared/apps/cuda11.0/toolkit/11.0.3/targets/x86_64-linux/lib:/cm/shared/apps/cuda11.0/visual-tools/11.0.3/libnvvp:/burg/opt/openmpi-4.1.1_ucx_cuda_11.0.3_support/lib:/cm/shared/apps/slurm/current/lib64/slurm:/cm/shared/apps/slurm/current/lib64
Slurm Job ID is: 1845591
Slurm Job name is: wb97x-d-peroxide-dmso_opt
g067

                                 *****************
                                 * O   R   C   A *
                                 *****************

                                            #,                                       
                                            ###                                      
                                            ####                                     
                                            #####                                    
                                            ######                                   
                                           ########,                                 
                                     ,,################,,,,,                         
                               ,,#################################,,                 
                          ,,##########################################,,             
                       ,#########################################, ''#####,          
                    ,#############################################,,   '####,        
                  ,##################################################,,,,####,       
                ,###########''''           ''''###############################       
              ,#####''   ,,,,##########,,,,          '''####'''          '####       
            ,##' ,,,,###########################,,,                        '##       
           ' ,,###''''                  '''############,,,                           
         ,,##''                                '''############,,,,        ,,,,,,###''
      ,#''                                            '''#######################'''  
     '                                                          ''''####''''         
             ,#######,   #######,   ,#######,      ##                                
            ,#'     '#,  ##    ##  ,#'     '#,    #''#        ######   ,####,        
            ##       ##  ##   ,#'  ##            #'  '#       #        #'  '#        
            ##       ##  #######   ##           ,######,      #####,   #    #        
            '#,     ,#'  ##    ##  '#,     ,#' ,#      #,         ##   #,  ,#        
             '#######'   ##     ##  '#######'  #'      '#     #####' # '####'        



                  #######################################################
                  #                        -***-                        #
                  #          Department of theory and spectroscopy      #
                  #    Directorship and core code : Frank Neese         #
                  #        Max Planck Institute fuer Kohlenforschung    #
                  #                Kaiser Wilhelm Platz 1               #
                  #                 D-45470 Muelheim/Ruhr               #
                  #                      Germany                        #
                  #                                                     #
                  #                  All rights reserved                #
                  #                        -***-                        #
                  #######################################################


                         Program Version 5.0.3 -  RELEASE  -


 With contributions from (in alphabetic order):
   Daniel Aravena         : Magnetic Suceptibility
   Michael Atanasov       : Ab Initio Ligand Field Theory (pilot matlab implementation)
   Alexander A. Auer      : GIAO ZORA, VPT2 properties, NMR spectrum
   Ute Becker             : Parallelization
   Giovanni Bistoni       : ED, misc. LED, open-shell LED, HFLD
   Martin Brehm           : Molecular dynamics
   Dmytro Bykov           : SCF Hessian
   Vijay G. Chilkuri      : MRCI spin determinant printing, contributions to CSF-ICE
   Dipayan Datta          : RHF DLPNO-CCSD density
   Achintya Kumar Dutta   : EOM-CC, STEOM-CC
   Dmitry Ganyushin       : Spin-Orbit,Spin-Spin,Magnetic field MRCI
   Miquel Garcia          : C-PCM and meta-GGA Hessian, CC/C-PCM, Gaussian charge scheme
   Yang Guo               : DLPNO-NEVPT2, F12-NEVPT2, CIM, IAO-localization
   Andreas Hansen         : Spin unrestricted coupled pair/coupled cluster methods
   Benjamin Helmich-Paris : MC-RPA, TRAH-SCF, COSX integrals
   Lee Huntington         : MR-EOM, pCC
   Robert Izsak           : Overlap fitted RIJCOSX, COSX-SCS-MP3, EOM
   Marcus Kettner         : VPT2
   Christian Kollmar      : KDIIS, OOCD, Brueckner-CCSD(T), CCSD density, CASPT2, CASPT2-K
   Simone Kossmann        : Meta GGA functionals, TD-DFT gradient, OOMP2, MP2 Hessian
   Martin Krupicka        : Initial AUTO-CI
   Lucas Lang             : DCDCAS
   Marvin Lechner         : AUTO-CI (C++ implementation), FIC-MRCC
   Dagmar Lenk            : GEPOL surface, SMD
   Dimitrios Liakos       : Extrapolation schemes; Compound Job, initial MDCI parallelization
   Dimitrios Manganas     : Further ROCIS development; embedding schemes
   Dimitrios Pantazis     : SARC Basis sets
   Anastasios Papadopoulos: AUTO-CI, single reference methods and gradients
   Taras Petrenko         : DFT Hessian,TD-DFT gradient, ASA, ECA, R-Raman, ABS, FL, XAS/XES, NRVS
   Peter Pinski           : DLPNO-MP2, DLPNO-MP2 Gradient
   Christoph Reimann      : Effective Core Potentials
   Marius Retegan         : Local ZFS, SOC
   Christoph Riplinger    : Optimizer, TS searches, QM/MM, DLPNO-CCSD(T), (RO)-DLPNO pert. Triples
   Tobias Risthaus        : Range-separated hybrids, TD-DFT gradient, RPA, STAB
   Michael Roemelt        : Original ROCIS implementation
   Masaaki Saitow         : Open-shell DLPNO-CCSD energy and density
   Barbara Sandhoefer     : DKH picture change effects
   Avijit Sen             : IP-ROCIS
   Kantharuban Sivalingam : CASSCF convergence, NEVPT2, FIC-MRCI
   Bernardo de Souza      : ESD, SOC TD-DFT
   Georgi Stoychev        : AutoAux, RI-MP2 NMR, DLPNO-MP2 response
   Willem Van den Heuvel  : Paramagnetic NMR
   Boris Wezisla          : Elementary symmetry handling
   Frank Wennmohs         : Technical directorship


 We gratefully acknowledge several colleagues who have allowed us to
 interface, adapt or use parts of their codes:
   Stefan Grimme, W. Hujo, H. Kruse, P. Pracht,  : VdW corrections, initial TS optimization,
                  C. Bannwarth, S. Ehlert          DFT functionals, gCP, sTDA/sTD-DF
   Ed Valeev, F. Pavosevic, A. Kumar             : LibInt (2-el integral package), F12 methods
   Garnet Chan, S. Sharma, J. Yang, R. Olivares  : DMRG
   Ulf Ekstrom                                   : XCFun DFT Library
   Mihaly Kallay                                 : mrcc  (arbitrary order and MRCC methods)
   Jiri Pittner, Ondrej Demel                    : Mk-CCSD
   Frank Weinhold                                : gennbo (NPA and NBO analysis)
   Christopher J. Cramer and Donald G. Truhlar   : smd solvation model
   Lars Goerigk                                  : TD-DFT with DH, B97 family of functionals
   V. Asgeirsson, H. Jonsson                     : NEB implementation
   FAccTs GmbH                                   : IRC, NEB, NEB-TS, DLPNO-Multilevel, CI-OPT
                                                   MM, QMMM, 2- and 3-layer-ONIOM, Crystal-QMMM,
                                                   LR-CPCM, SF, NACMEs, symmetry and pop. for TD-DFT,
                                                   nearIR, NL-DFT gradient (VV10), updates on ESD,
                                                   ML-optimized integration grids
   S Lehtola, MJT Oliveira, MAL Marques          : LibXC Library
   Liviu Ungur et al                             : ANISO software


 Your calculation uses the libint2 library for the computation of 2-el integrals
 For citations please refer to: http://libint.valeyev.net

 Your ORCA version has been built with support for libXC version: 5.1.0
 For citations please refer to: https://tddft.org/programs/libxc/

 This ORCA versions uses:
   CBLAS   interface :  Fast vector & matrix operations
   LAPACKE interface :  Fast linear algebra routines
   SCALAPACK package :  Parallel linear algebra routines
   Shared memory     :  Shared parallel matrices
   BLAS/LAPACK       :  OpenBLAS 0.3.15  USE64BITINT DYNAMIC_ARCH NO_AFFINITY SkylakeX SINGLE_THREADED
        Core in use  :  SkylakeX
   Copyright (c) 2011-2014, The OpenBLAS Project


Your calculation utilizes the atom-pairwise dispersion correction
with the zero-damping scheme (D30)
Cite in your paper:
S.Grimme, J.Antony, S.Ehrlich and H.Krieg, J.Chem.Phys., 132, (2010), 154104 
   

Your calculation utilizes the SMD solvation module
Please cite in your paper:
A.V. Marenich, C.J. Cramer, D.G. Truhlar J. Phys. Chem. B, 113, (2009), 6378 

XCFun DFT library Copyright 2009-2010 Ulf Ekstrom and contributors.
See http://admol.org/xcfun for more information.
This is free software; see the source code for copying conditions.
There is ABSOLUTELY NO WARRANTY; not even for MERCHANTABILITY or FITNESS FOR A PARTICULAR PURPOSE.
For details see the documentation.
Scientific users of this library should cite U. Ekstrom, L. Visscher, R. Bast, A. J. Thorvaldsen and K. Ruud;
J.Chem.Theor.Comp. 2010, DOI: 10.1021/ct100117s
XCFun Version 0.99 

================================================================================

----- Orbital basis set information -----
Your calculation utilizes the basis: def2-TZVP
   F. Weigend and R. Ahlrichs, Phys. Chem. Chem. Phys. 7, 3297 (2005).

----- AuxJ basis set information -----
Your calculation utilizes the auxiliary basis: def2/J
   F. Weigend, Phys. Chem. Chem. Phys. 8, 1057 (2006).

================================================================================
                                        WARNINGS
                       Please study these warnings very carefully!
================================================================================


WARNING: Geometry Optimization
  ===> : Switching off AutoStart
         For restart on a previous wavefunction, please use MOREAD

INFO   : the flag for use of the SHARK integral package has been found!

================================================================================
                                       INPUT FILE
================================================================================
NAME = /burg/berkelbach/users/eav2136/projects/peroxide_dissociation/05_range_separated_functional/wb97x-d-peroxide-dmso/wb97x-d-peroxide-dmso_opt.inp
|  1> ! UKS wB97X-D3 def2-TZVP TIGHTSCF Opt CPCM PAL8
|  2> %maxcore 5000
|  3> %cpcm
|  4> smd true
|  5> SMDsolvent "DMSO"
|  6> end
|  7> * xyz 0 1
|  8>  C -0.07425707479814 6.45007760366319 3.54636897867849
|  9>  S 1.48979584793712 6.08048225687873 2.75598260255209
| 10>  C 1.14936654141856 4.63662227087222 1.83369205968326
| 11>  C -0.09136557109480 4.00305286554088 1.79338352444578
| 12>  C -0.25826928718407 2.84269542505768 1.05936282240646
| 13>  C 0.80050967676942 2.30271389692801 0.33923873907232
| 14>  C 2.02875697338567 2.96040825022008 0.34201900047512
| 15>  C 2.20764771123846 4.10330343094754 1.09121055149825
| 16>  C 0.66254428710301 1.09941809961861 -0.50690159852297
| 17>  O 0.00000000000000 0.00000000000000 0.00000000000000
| 18>  O 1.06713866538631 0.98717129960580 -1.62357736506780
| 19>  O 0.00000000000000 0.00000000000000 1.41527284498687
| 20>  C -1.27388770944479 0.00000000000000 1.91590645535523
| 21>  C -1.22211457253867 0.06642777988277 3.38831477989974
| 22>  O -2.25742922897412 -0.02585779042736 1.23875652957256
| 23>  C -2.41543940252313 -0.12289611375011 4.08595252694906
| 24>  C -2.44195923478874 -0.03437680070658 5.45887710053507
| 25>  C -1.27275068522395 0.25496212808386 6.17298493884884
| 26>  C -0.08177795586127 0.45060655108151 5.47518008098465
| 27>  C -0.05890441770979 0.35440376081578 4.09544628781756
| 28>  S -1.42666733932306 0.34986111841343 7.90788531117200
| 29>  C 0.24316058065577 0.68495422113854 8.46194522255982
| 30>  H 0.10416325535368 7.34607684664392 4.14087383255362
| 31>  H -0.38882275224257 5.64387294862163 4.21002028523424
| 32>  H -0.85323854703301 6.66443357654391 2.81385647784552
| 33>  H -0.93700004363157 4.40513362395569 2.33421606140266
| 34>  H -1.23507439683237 2.37497021944690 1.02749021968162
| 35>  H 2.84544686618639 2.55882587909200 -0.24576673820719
| 36>  H 3.17295340310622 4.59670965109571 1.10248346369500
| 37>  H -3.31769085302541 -0.33900022625314 3.52707230389961
| 38>  H -3.37188538809726 -0.18808364875198 5.99464715790180
| 39>  H 0.83479761044422 0.68252071425859 5.99988733430662
| 40>  H 0.87046926144621 0.51883617942438 3.56602510045047
| 41>  H 0.18454114424639 0.73729393679500 9.54909076814075
| 42>  H 0.60864534290486 1.64029462399245 8.08374213903351
| 43>  H 0.92507514742305 -0.11949528816653 8.18458994466104
| 44> *
| 45> 
| 46>                          ****END OF INPUT****
================================================================================

                       *****************************
                       * Geometry Optimization Run *
                       *****************************

Geometry optimization settings:
Update method            Update   .... BFGS
Choice of coordinates    CoordSys .... Z-matrix Internals
Initial Hessian          InHess   .... Almoef's Model

Convergence Tolerances:
Energy Change            TolE     ....  5.0000e-06 Eh
Max. Gradient            TolMAXG  ....  3.0000e-04 Eh/bohr
RMS Gradient             TolRMSG  ....  1.0000e-04 Eh/bohr
Max. Displacement        TolMAXD  ....  4.0000e-03 bohr
RMS Displacement         TolRMSD  ....  2.0000e-03 bohr
Strict Convergence                ....  False
------------------------------------------------------------------------------
                        ORCA OPTIMIZATION COORDINATE SETUP
------------------------------------------------------------------------------

The optimization will be done in new redundant internal coordinates
Making redundant internal coordinates   ...  (new redundants) done
Evaluating the initial hessian          ...  (Almloef) done
Evaluating the coordinates              ...  done
Calculating the B-matrix                .... done
Calculating the G-matrix                .... done
Diagonalizing the G-matrix              .... done
Small eigenvalue found = 6.813e-04
Small eigenvalue found = 1.847e-03
Small eigenvalue found = 4.132e-03
Small eigenvalue found = 1.197e-02
Small eigenvalue found = 1.299e-02
Small eigenvalue found = 2.647e-02
The first mode is                       ....   64
The number of degrees of freedom        ....  102

    -----------------------------------------------------------------
                    Redundant Internal Coordinates


    -----------------------------------------------------------------
         Definition                    Initial Value    Approx d2E/dq
    -----------------------------------------------------------------
      1. B(S   1,C   0)                  1.7910         0.386175   
      2. B(C   2,S   1)                  1.7468         0.454240   
      3. B(C   3,C   2)                  1.3937         0.616320   
      4. B(C   4,C   3)                  1.3831         0.640745   
      5. B(C   5,C   4)                  1.3897         0.625563   
      6. B(C   6,C   5)                  1.3933         0.617369   
      7. B(C   7,C   2)                  1.3985         0.605696   
      8. B(C   7,C   6)                  1.3782         0.652421   
      9. B(C   8,C   5)                  1.4775         0.453096   
     10. B(O   9,C   8)                  1.3801         0.580356   
     11. B(O  10,C   8)                  1.1930         1.153901   
     12. B(O  11,O   9)                  1.4153         0.456763   
     13. B(C  12,O  11)                  1.3687         0.605075   
     14. B(C  13,C  12)                  1.4748         0.457532   
     15. B(O  14,C  12)                  1.1944         1.148067   
     16. B(C  15,C  13)                  1.3952         0.612988   
     17. B(C  16,C  15)                  1.3760         0.657696   
     18. B(C  17,C  16)                  1.4003         0.601695   
     19. B(C  18,C  17)                  1.3941         0.615367   
     20. B(C  19,C  18)                  1.3833         0.640430   
     21. B(C  19,C  13)                  1.3914         0.621567   
     22. B(S  20,C  17)                  1.7443         0.458402   
     23. B(C  21,S  20)                  1.7910         0.386167   
     24. B(H  22,C   0)                  1.0900         0.360109   
     25. B(H  23,C   0)                  1.0906         0.359342   
     26. B(H  24,C   0)                  1.0906         0.359351   
     27. B(H  25,C   3)                  1.0813         0.371759   
     28. B(H  26,C   4)                  1.0835         0.368828   
     29. B(H  27,C   6)                  1.0834         0.368946   
     30. B(H  28,C   7)                  1.0842         0.367916   
     31. B(H  29,C  15)                  1.0831         0.369344   
     32. B(H  30,C  16)                  1.0842         0.367887   
     33. B(H  31,C  18)                  1.0813         0.371793   
     34. B(H  32,C  19)                  1.0822         0.370628   
     35. B(H  33,C  21)                  1.0900         0.360124   
     36. B(H  34,C  21)                  1.0905         0.359378   
     37. B(H  35,C  21)                  1.0904         0.359511   
     38. A(H  22,C   0,H  23)          108.8436         0.290744   
     39. A(H  22,C   0,H  24)          108.7656         0.290746   
     40. A(S   1,C   0,H  24)          111.5879         0.342618   
     41. A(S   1,C   0,H  23)          111.5859         0.342616   
     42. A(H  23,C   0,H  24)          110.3658         0.290648   
     43. A(S   1,C   0,H  22)          105.5091         0.342738   
     44. A(C   0,S   1,C   2)          103.4970         0.419917   
     45. A(C   3,C   2,C   7)          119.0102         0.431786   
     46. A(S   1,C   2,C   3)          124.3692         0.432719   
     47. A(S   1,C   2,C   7)          116.6202         0.431369   
     48. A(C   2,C   3,C   4)          120.2744         0.436178   
     49. A(C   4,C   3,H  25)          118.8821         0.356807   
     50. A(C   2,C   3,H  25)          120.8433         0.354461   
     51. A(C   5,C   4,H  26)          120.2581         0.354880   
     52. A(C   3,C   4,H  26)          119.1145         0.356327   
     53. A(C   3,C   4,C   5)          120.6005         0.437350   
     54. A(C   4,C   5,C   6)          119.1567         0.434432   
     55. A(C   4,C   5,C   8)          122.8259         0.411072   
     56. A(C   6,C   5,C   8)          117.8994         0.410112   
     57. A(C   7,C   6,H  27)          120.2952         0.357442   
     58. A(C   5,C   6,H  27)          119.2412         0.354107   
     59. A(C   5,C   6,C   7)          120.4618         0.437734   
     60. A(C   6,C   7,H  28)          119.9087         0.357272   
     61. A(C   2,C   7,H  28)          119.6508         0.352797   
     62. A(C   2,C   7,C   6)          120.4398         0.436231   
     63. A(O   9,C   8,O  10)          115.5727         0.473849   
     64. A(C   5,C   8,O  10)          125.5219         0.455899   
     65. A(C   5,C   8,O   9)          118.8999         0.403044   
     66. A(C   8,O   9,O  11)          111.5490         0.398410   
     67. A(O   9,O  11,C  12)          111.4547         0.401345   
     68. A(C  13,C  12,O  14)          126.5770         0.456288   
     69. A(O  11,C  12,O  14)          123.9896         0.477054   
     70. A(O  11,C  12,C  13)          109.4203         0.406723   
     71. A(C  12,C  13,C  19)          123.0966         0.411315   
     72. A(C  15,C  13,C  19)          119.2748         0.433376   
     73. A(C  12,C  13,C  15)          117.5858         0.410303   
     74. A(C  16,C  15,H  29)          120.7715         0.357997   
     75. A(C  13,C  15,H  29)          118.7871         0.353745   
     76. A(C  13,C  15,C  16)          120.4413         0.437808   
     77. A(C  17,C  16,H  30)          119.5691         0.352397   
     78. A(C  15,C  16,H  30)          120.0309         0.357757   
     79. A(C  15,C  16,C  17)          120.3999         0.436343   
     80. A(C  16,C  17,S  20)          116.4104         0.431562   
     81. A(C  18,C  17,S  20)          124.4423         0.433309   
     82. A(C  16,C  17,C  18)          119.1469         0.431152   
     83. A(C  17,C  18,C  19)          120.2393         0.436018   
     84. A(C  19,C  18,H  31)          119.0068         0.356782   
     85. A(C  17,C  18,H  31)          120.7535         0.354374   
     86. A(C  13,C  19,C  18)          120.4962         0.436806   
     87. A(C  18,C  19,H  32)          119.4465         0.356592   
     88. A(C  13,C  19,H  32)          120.0518         0.354788   
     89. A(C  17,S  20,C  21)          103.6272         0.420599   
     90. A(H  34,C  21,H  35)          110.3939         0.290673   
     91. A(H  33,C  21,H  35)          108.8290         0.290768   
     92. A(S  20,C  21,H  35)          111.4899         0.342642   
     93. A(H  33,C  21,H  34)          108.7753         0.290751   
     94. A(S  20,C  21,H  34)          111.6593         0.342620   
     95. A(S  20,C  21,H  33)          105.5095         0.342739   
     96. D(C   2,S   1,C   0,H  22)    179.5234         0.003898   
     97. D(C   2,S   1,C   0,H  23)     61.4721         0.003898   
     98. D(C   2,S   1,C   0,H  24)    -62.5176         0.003898   
     99. D(C   3,C   2,S   1,C   0)      0.0768         0.004531   
    100. D(C   7,C   2,S   1,C   0)    179.8441         0.004531   
    101. D(C   4,C   3,C   2,C   7)      1.8479         0.026266   
    102. D(C   4,C   3,C   2,S   1)   -178.3900         0.026266   
    103. D(H  25,C   3,C   2,C   7)   -178.3097         0.026266   
    104. D(H  25,C   3,C   2,S   1)      1.4524         0.026266   
    105. D(H  26,C   4,C   3,H  25)      1.1825         0.028529   
    106. D(H  26,C   4,C   3,C   2)   -178.9720         0.028529   
    107. D(C   5,C   4,C   3,H  25)    179.3028         0.028529   
    108. D(C   5,C   4,C   3,C   2)     -0.8517         0.028529   
    109. D(C   6,C   5,C   4,H  26)    176.7603         0.027109   
    110. D(C   6,C   5,C   4,C   3)     -1.3385         0.027109   
    111. D(C   8,C   5,C   4,C   3)   -177.3042         0.027109   
    112. D(C   8,C   5,C   4,H  26)      0.7946         0.027109   
    113. D(H  27,C   6,C   5,C   8)     -1.7852         0.026361   
    114. D(H  27,C   6,C   5,C   4)   -177.9495         0.026361   
    115. D(C   7,C   6,C   5,C   8)    178.6982         0.026361   
    116. D(C   7,C   6,C   5,C   4)      2.5338         0.026361   
    117. D(H  28,C   7,C   6,H  27)     -0.7379         0.029652   
    118. D(H  28,C   7,C   6,C   5)    178.7736         0.029652   
    119. D(C   2,C   7,C   6,H  27)    178.9472         0.029652   
    120. D(C   2,C   7,C   6,C   5)     -1.5413         0.029652   
    121. D(H  28,C   7,C   2,C   3)    179.0287         0.025317   
    122. D(H  28,C   7,C   2,S   1)     -0.7516         0.025317   
    123. D(C   6,C   7,C   2,C   3)     -0.6572         0.025317   
    124. D(C   6,C   7,C   2,S   1)    179.5625         0.025317   
    125. D(O   9,C   8,C   5,C   6)    137.7156         0.013991   
    126. D(O   9,C   8,C   5,C   4)    -46.2708         0.013991   
    127. D(O  10,C   8,C   5,C   6)    -43.1749         0.013991   
    128. D(O  10,C   8,C   5,C   4)    132.8388         0.013991   
    129. D(O  11,O   9,C   8,O  10)    157.9229         0.024498   
    130. D(O  11,O   9,C   8,C   5)    -22.8806         0.024498   
    131. D(C  12,O  11,O   9,C   8)    121.0745         0.015467   
    132. D(O  14,C  12,O  11,O   9)      1.4962         0.026770   
    133. D(C  13,C  12,O  11,O   9)   -177.2626         0.026770   
    134. D(C  19,C  13,C  12,O  14)   -167.0428         0.014262   
    135. D(C  19,C  13,C  12,O  11)     11.6757         0.014262   
    136. D(C  15,C  13,C  12,O  14)     10.5550         0.014262   
    137. D(C  15,C  13,C  12,O  11)   -170.7265         0.014262   
    138. D(H  29,C  15,C  13,C  19)    179.5255         0.025966   
    139. D(H  29,C  15,C  13,C  12)      1.8326         0.025966   
    140. D(C  16,C  15,C  13,C  19)     -0.4006         0.025966   
    141. D(C  16,C  15,C  13,C  12)   -178.0935         0.025966   
    142. D(H  30,C  16,C  15,H  29)      0.4119         0.030169   
    143. D(H  30,C  16,C  15,C  13)   -179.6635         0.030169   
    144. D(C  17,C  16,C  15,H  29)   -179.5362         0.030169   
    145. D(C  17,C  16,C  15,C  13)      0.3884         0.030169   
    146. D(S  20,C  17,C  16,H  30)     -0.2280         0.024966   
    147. D(S  20,C  17,C  16,C  15)    179.7203         0.024966   
    148. D(C  18,C  17,C  16,H  30)    179.9814         0.024966   
    149. D(C  18,C  17,C  16,C  15)     -0.0703         0.024966   
    150. D(H  31,C  18,C  17,S  20)     -0.2266         0.026180   
    151. D(H  31,C  18,C  17,C  16)    179.5460         0.026180   
    152. D(C  19,C  18,C  17,S  20)    179.9944         0.026180   
    153. D(C  19,C  18,C  17,C  16)     -0.2330         0.026180   
    154. D(C  13,C  19,C  18,C  17)      0.2195         0.028499   
    155. D(H  32,C  19,C  13,C  15)   -179.0463         0.026742   
    156. D(H  32,C  19,C  13,C  12)     -1.4873         0.026742   
    157. D(C  18,C  19,C  13,C  15)      0.0962         0.026742   
    158. D(C  18,C  19,C  13,C  12)    177.6553         0.026742   
    159. D(H  32,C  19,C  18,H  31)     -0.4157         0.028499   
    160. D(H  32,C  19,C  18,C  17)    179.3672         0.028499   
    161. D(C  13,C  19,C  18,H  31)   -179.5634         0.028499   
    162. D(C  21,S  20,C  17,C  18)     -1.6462         0.004589   
    163. D(C  21,S  20,C  17,C  16)    178.5756         0.004589   
    164. D(H  35,C  21,S  20,C  17)    -61.2749         0.003898   
    165. D(H  34,C  21,S  20,C  17)     62.7331         0.003898   
    166. D(H  33,C  21,S  20,C  17)   -179.2586         0.003898   
    -----------------------------------------------------------------

Number of atoms                         .... 36
Number of degrees of freedom            .... 166

         *************************************************************
         *                GEOMETRY OPTIMIZATION CYCLE   1            *
         *************************************************************
---------------------------------
CARTESIAN COORDINATES (ANGSTROEM)
---------------------------------
  C     -0.074257    6.450078    3.546369
  S      1.489796    6.080482    2.755983
  C      1.149367    4.636622    1.833692
  C     -0.091366    4.003053    1.793384
  C     -0.258269    2.842695    1.059363
  C      0.800510    2.302714    0.339239
  C      2.028757    2.960408    0.342019
  C      2.207648    4.103303    1.091211
  C      0.662544    1.099418   -0.506902
  O      0.000000    0.000000    0.000000
  O      1.067139    0.987171   -1.623577
  O      0.000000    0.000000    1.415273
  C     -1.273888    0.000000    1.915906
  C     -1.222115    0.066428    3.388315
  O     -2.257429   -0.025858    1.238757
  C     -2.415439   -0.122896    4.085953
  C     -2.441959   -0.034377    5.458877
  C     -1.272751    0.254962    6.172985
  C     -0.081778    0.450607    5.475180
  C     -0.058904    0.354404    4.095446
  S     -1.426667    0.349861    7.907885
  C      0.243161    0.684954    8.461945
  H      0.104163    7.346077    4.140874
  H     -0.388823    5.643873    4.210020
  H     -0.853239    6.664434    2.813856
  H     -0.937000    4.405134    2.334216
  H     -1.235074    2.374970    1.027490
  H      2.845447    2.558826   -0.245767
  H      3.172953    4.596710    1.102483
  H     -3.317691   -0.339000    3.527072
  H     -3.371885   -0.188084    5.994647
  H      0.834798    0.682521    5.999887
  H      0.870469    0.518836    3.566025
  H      0.184541    0.737294    9.549091
  H      0.608645    1.640295    8.083742
  H      0.925075   -0.119495    8.184590

----------------------------
CARTESIAN COORDINATES (A.U.)
----------------------------
  NO LB      ZA    FRAG     MASS         X           Y           Z
   0 C     6.0000    0    12.011   -0.140326   12.188880    6.701666
   1 S    16.0000    0    32.060    2.815306   11.490446    5.208052
   2 C     6.0000    0    12.011    2.171988    8.761946    3.465176
   3 C     6.0000    0    12.011   -0.172656    7.564674    3.389004
   4 C     6.0000    0    12.011   -0.488058    5.371916    2.001906
   5 C     6.0000    0    12.011    1.512744    4.351499    0.641068
   6 C     6.0000    0    12.011    3.833795    5.594361    0.646322
   7 C     6.0000    0    12.011    4.171850    7.754120    2.062089
   8 C     6.0000    0    12.011    1.252027    2.077599   -0.957905
   9 O     8.0000    0    15.999    0.000000    0.000000    0.000000
  10 O     8.0000    0    15.999    2.016600    1.865483   -3.068117
  11 O     8.0000    0    15.999    0.000000    0.000000    2.674478
  12 C     6.0000    0    12.011   -2.407299    0.000000    3.620538
  13 C     6.0000    0    12.011   -2.309462    0.125530    6.402987
  14 O     8.0000    0    15.999   -4.265923   -0.048864    2.340911
  15 C     6.0000    0    12.011   -4.564519   -0.232240    7.721331
  16 C     6.0000    0    12.011   -4.614634   -0.064963   10.315783
  17 C     6.0000    0    12.011   -2.405150    0.481809   11.665251
  18 C     6.0000    0    12.011   -0.154538    0.851523   10.346591
  19 C     6.0000    0    12.011   -0.111313    0.669726    7.739272
  20 S    16.0000    0    32.060   -2.696011    0.661142   14.943738
  21 C     6.0000    0    12.011    0.459507    1.294376   15.990759
  22 H     1.0000    0     1.008    0.196840   13.882073    7.825117
  23 H     1.0000    0     1.008   -0.734769   10.665374    7.955785
  24 H     1.0000    0     1.008   -1.612387   12.593954    5.317418
  25 H     1.0000    0     1.008   -1.770673    8.324496    4.411029
  26 H     1.0000    0     1.008   -2.333952    4.488043    1.941675
  27 H     1.0000    0     1.008    5.377115    4.835480   -0.464432
  28 H     1.0000    0     1.008    5.996013    8.686522    2.083392
  29 H     1.0000    0     1.008   -6.269527   -0.640618    6.665201
  30 H     1.0000    0     1.008   -6.371940   -0.355427   11.328241
  31 H     1.0000    0     1.008    1.577539    1.289777   11.338144
  32 H     1.0000    0     1.008    1.644949    0.980458    6.738811
  33 H     1.0000    0     1.008    0.348732    1.393284   18.045166
  34 H     1.0000    0     1.008    1.150173    3.099708   15.276059
  35 H     1.0000    0     1.008    1.748139   -0.225813   15.466634

--------------------------------
INTERNAL COORDINATES (ANGSTROEM)
--------------------------------
 C      0   0   0     0.000000000000     0.00000000     0.00000000
 S      1   0   0     1.790969818017     0.00000000     0.00000000
 C      2   1   0     1.746780929995   103.49703222     0.00000000
 C      3   2   1     1.393718459520   124.36918170     0.07682297
 C      4   3   2     1.383138688329   120.27439762   181.60997218
 C      5   4   3     1.389666017657   120.60050203   359.14829865
 C      6   5   4     1.393255545064   119.15672375   358.66151732
 C      7   6   5     1.378223229504   120.46180539     2.53383799
 C      6   5   4     1.477466986255   122.82593719   182.69580816
 O      9   6   5     1.380084896203   118.89987975   313.72924568
 O      9   6   5     1.193004913083   125.52191253   132.83876530
 O     10   9   6     1.415272844987   111.54903739   337.11941713
 C     12  10   9     1.368730765383   111.45466078   121.07450275
 C     13  12  10     1.474815033092   109.42032141   182.73741157
 O     13  12  10     1.194384598005   123.98959865     1.49620750
 C     14  13  12     1.395193933712   117.58575536   189.27346256
 C     16  14  13     1.376030833609   120.44129595   181.90648253
 C     17  16  14     1.400255566970   120.39992501     0.38844050
 C     18  17  16     1.394139305089   119.14686446   359.92970699
 C     19  18  17     1.383272755320   120.23932774   359.76697987
 S     18  17  16     1.744297983907   116.41043178   179.72028820
 C     21  18  17     1.790976006328   103.62720090   178.57561880
 H      1   2   3     1.089992880213   105.50910599   179.52342869
 H      1   2   3     1.090573504139   111.58592171    61.47211732
 H      1   2   3     1.090566449636   111.58785041   297.48242808
 H      4   3   2     1.081326236832   120.84329981     1.45240478
 H      5   4   3     1.083480942612   119.11451180   181.02803207
 H      7   6   5     1.083394137146   119.24119758   182.05045369
 H      8   7   6     1.084154903776   119.90872766   178.77361985
 H     16  14  13     1.083100074365   118.78711222     1.83264212
 H     17  16  14     1.084176184997   120.03093279   180.33653865
 H     19  18  17     1.081301368500   120.75351253   179.54600540
 H     20  19  18     1.082155372130   119.44648422   179.36717552
 H     22  21  18     1.089982165651   105.50954915   180.74135630
 H     22  21  18     1.090546637769   111.65925285    62.73308778
 H     22  21  18     1.090445981958   111.48990618   298.72507539

---------------------------
INTERNAL COORDINATES (A.U.)
---------------------------
 C      0   0   0     0.000000000000     0.00000000     0.00000000
 S      1   0   0     3.384442470171     0.00000000     0.00000000
 C      2   1   0     3.300937573646   103.49703222     0.00000000
 C      3   2   1     2.633746196283   124.36918170     0.07682297
 C      4   3   2     2.613753326172   120.27439762   181.60997218
 C      5   4   3     2.626088190988   120.60050203   359.14829865
 C      6   5   4     2.632871414738   119.15672375   358.66151732
 C      7   6   5     2.604464455171   120.46180539     2.53383799
 C      6   5   4     2.792007975932   122.82593719   182.69580816
 O      9   6   5     2.607982495384   118.89987975   313.72924568
 O      9   6   5     2.254452562149   125.52191253   132.83876530
 O     10   9   6     2.674478081801   111.54903739   337.11941713
 C     12  10   9     2.586526297646   111.45466078   121.07450275
 C     13  12  10     2.786996510733   109.42032141   182.73741157
 O     13  12  10     2.257059788803   123.98959865     1.49620750
 C     14  13  12     2.636534438423   117.58575536   189.27346256
 C     16  14  13     2.600321427352   120.44129595   181.90648253
 C     17  16  14     2.646099539072   120.39992501     0.38844050
 C     18  17  16     2.634541479154   119.14686446   359.92970699
 C     19  18  17     2.614006676069   120.23932774   359.76697987
 S     18  17  16     3.296245485535   116.41043178   179.72028820
 C     21  18  17     3.384454164384   103.62720090   178.57561880
 H      1   2   3     2.059788031526   105.50910599   179.52342869
 H      1   2   3     2.060885251733   111.58592171    61.47211732
 H      1   2   3     2.060871920655   111.58785041   297.48242808
 H      4   3   2     2.043410449036   120.84329981     1.45240478
 H      5   4   3     2.047482252859   119.11451180   181.02803207
 H      7   6   5     2.047318214302   119.24119758   182.05045369
 H      8   7   6     2.048755854885   119.90872766   178.77361985
 H     16  14  13     2.046762516180   118.78711222     1.83264212
 H     17  16  14     2.048796070563   120.03093279   180.33653865
 H     19  18  17     2.043363454698   120.75351253   179.54600540
 H     20  19  18     2.044977287678   119.44648422   179.36717552
 H     22  21  18     2.059767783938   105.50954915   180.74135630
 H     22  21  18     2.060834481653   111.65925285    62.73308778
 H     22  21  18     2.060644269736   111.48990618   298.72507539

---------------------
BASIS SET INFORMATION
---------------------
There are 4 groups of distinct atoms

 Group   1 Type C   : 11s6p2d1f contracted to 5s3p2d1f pattern {62111/411/11/1}
 Group   2 Type S   : 14s9p3d1f contracted to 5s5p2d1f pattern {73211/51111/21/1}
 Group   3 Type O   : 11s6p2d1f contracted to 5s3p2d1f pattern {62111/411/11/1}
 Group   4 Type H   : 5s1p contracted to 3s1p pattern {311/1}

Atom   0C    basis set group =>   1
Atom   1S    basis set group =>   2
Atom   2C    basis set group =>   1
Atom   3C    basis set group =>   1
Atom   4C    basis set group =>   1
Atom   5C    basis set group =>   1
Atom   6C    basis set group =>   1
Atom   7C    basis set group =>   1
Atom   8C    basis set group =>   1
Atom   9O    basis set group =>   3
Atom  10O    basis set group =>   3
Atom  11O    basis set group =>   3
Atom  12C    basis set group =>   1
Atom  13C    basis set group =>   1
Atom  14O    basis set group =>   3
Atom  15C    basis set group =>   1
Atom  16C    basis set group =>   1
Atom  17C    basis set group =>   1
Atom  18C    basis set group =>   1
Atom  19C    basis set group =>   1
Atom  20S    basis set group =>   2
Atom  21C    basis set group =>   1
Atom  22H    basis set group =>   4
Atom  23H    basis set group =>   4
Atom  24H    basis set group =>   4
Atom  25H    basis set group =>   4
Atom  26H    basis set group =>   4
Atom  27H    basis set group =>   4
Atom  28H    basis set group =>   4
Atom  29H    basis set group =>   4
Atom  30H    basis set group =>   4
Atom  31H    basis set group =>   4
Atom  32H    basis set group =>   4
Atom  33H    basis set group =>   4
Atom  34H    basis set group =>   4
Atom  35H    basis set group =>   4
---------------------------------
AUXILIARY/J BASIS SET INFORMATION
---------------------------------
There are 4 groups of distinct atoms

 Group   1 Type C   : 12s5p4d2f1g contracted to 6s4p3d1f1g pattern {711111/2111/211/2/1}
 Group   2 Type S   : 14s5p5d2f1g contracted to 8s4p3d1f1g pattern {71111111/2111/311/2/1}
 Group   3 Type O   : 12s5p4d2f1g contracted to 6s4p3d1f1g pattern {711111/2111/211/2/1}
 Group   4 Type H   : 5s2p1d contracted to 3s1p1d pattern {311/2/1}

Atom   0C    basis set group =>   1
Atom   1S    basis set group =>   2
Atom   2C    basis set group =>   1
Atom   3C    basis set group =>   1
Atom   4C    basis set group =>   1
Atom   5C    basis set group =>   1
Atom   6C    basis set group =>   1
Atom   7C    basis set group =>   1
Atom   8C    basis set group =>   1
Atom   9O    basis set group =>   3
Atom  10O    basis set group =>   3
Atom  11O    basis set group =>   3
Atom  12C    basis set group =>   1
Atom  13C    basis set group =>   1
Atom  14O    basis set group =>   3
Atom  15C    basis set group =>   1
Atom  16C    basis set group =>   1
Atom  17C    basis set group =>   1
Atom  18C    basis set group =>   1
Atom  19C    basis set group =>   1
Atom  20S    basis set group =>   2
Atom  21C    basis set group =>   1
Atom  22H    basis set group =>   4
Atom  23H    basis set group =>   4
Atom  24H    basis set group =>   4
Atom  25H    basis set group =>   4
Atom  26H    basis set group =>   4
Atom  27H    basis set group =>   4
Atom  28H    basis set group =>   4
Atom  29H    basis set group =>   4
Atom  30H    basis set group =>   4
Atom  31H    basis set group =>   4
Atom  32H    basis set group =>   4
Atom  33H    basis set group =>   4
Atom  34H    basis set group =>   4
Atom  35H    basis set group =>   4


           ************************************************************
           *        Program running with 8 parallel MPI-processes     *
           *              working on a common directory               *
           ************************************************************
------------------------------------------------------------------------------
                           ORCA GTO INTEGRAL CALCULATION
                           -- RI-GTO INTEGRALS CHOSEN --
------------------------------------------------------------------------------
------------------------------------------------------------------------------
                   ___                                                        
                  /   \      - P O W E R E D   B Y -                         
                 /     \                                                     
                 |  |  |   _    _      __       _____    __    __             
                 |  |  |  | |  | |    /  \     |  _  \  |  |  /  |          
                  \  \/   | |  | |   /    \    | | | |  |  | /  /          
                 / \  \   | |__| |  /  /\  \   | |_| |  |  |/  /          
                |  |  |   |  __  | /  /__\  \  |    /   |      \           
                |  |  |   | |  | | |   __   |  |    \   |  |\   \          
                \     /   | |  | | |  |  |  |  | |\  \  |  | \   \       
                 \___/    |_|  |_| |__|  |__|  |_| \__\ |__|  \__/        
                                                                              
                      - O R C A' S   B I G   F R I E N D -                    
                                      &                                       
                       - I N T E G R A L  F E E D E R -                       
                                                                              
 v1 FN, 2020, v2 2021                                                         
------------------------------------------------------------------------------


Reading SHARK input file /burg/berkelbach/users/eav2136/projects/peroxide_dissociation/05_range_separated_functional/wb97x-d-peroxide-dmso/wb97x-d-peroxide-dmso_opt.SHARKINP.tmp ... ok
----------------------
SHARK INTEGRAL PACKAGE
----------------------

Number of atoms                             ...     36
Number of basis functions                   ...    778
Number of shells                            ...    302
Maximum angular momentum                    ...      3
Integral batch strategy                     ... SHARK/LIBINT Hybrid
RI-J (if used) integral strategy            ... SPLIT-RIJ (Revised 2003 algorithm where possible)
Printlevel                                  ...      1
Contraction scheme used                     ... SEGMENTED contraction
Coulomb Range Separation                    ... NOT USED
Exchange Range Separation                   ... Long Range
   Mu parameter                             ...  0.250000
   Scaling (regular/separated)              ...  0.195728  0.804272
Finite Nucleus Model                        ... NOT USED
Auxiliary Coulomb fitting basis             ... AVAILABLE
   # of basis functions in Aux-J            ...   1236
   # of shells in Aux-J                     ...    404
   Maximum angular momentum in Aux-J        ...      4
Auxiliary J/K fitting basis                 ... NOT available
Auxiliary Correlation fitting basis         ... NOT available
Auxiliary 'external' fitting basis          ... NOT available
Integral threshold                          ...     2.500000e-11
Primitive cut-off                           ...     2.500000e-12
Primitive pair pre-selection threshold      ...     2.500000e-12

Calculating pre-screening integrals         ... done (  0.1 sec) Dimension = 302
Organizing shell pair data                  ... done (  0.3 sec)
Shell pair information
Total number of shell pairs                 ...     45753
Shell pairs after pre-screening             ...     30707
Total number of primitive shell pairs       ...    145545
Primitive shell pairs kept                  ...     63502
          la=0 lb=0:   7523 shell pairs
          la=1 lb=0:   8937 shell pairs
          la=1 lb=1:   2674 shell pairs
          la=2 lb=0:   4331 shell pairs
          la=2 lb=1:   2602 shell pairs
          la=2 lb=2:    662 shell pairs
          la=3 lb=0:   2019 shell pairs
          la=3 lb=1:   1229 shell pairs
          la=3 lb=2:    589 shell pairs
          la=3 lb=3:    141 shell pairs

Calculating one electron integrals          ... done (  0.1 sec)
Calculating RI/J V-Matrix + Cholesky decomp.... done (  0.1 sec)
Calculating Nuclear repulsion               ... done (  0.0 sec) ENN=   1970.142246923818 Eh

SHARK setup successfully completed in   0.9 seconds

Maximum memory used throughout the entire GTOINT-calculation: 49.0 MB


           ************************************************************
           *        Program running with 8 parallel MPI-processes     *
           *              working on a common directory               *
           ************************************************************
-------------------------------------------------------------------------------
                                 ORCA SCF
-------------------------------------------------------------------------------

------------
SCF SETTINGS
------------
Hamiltonian:
 Density Functional     Method          .... DFT(GTOs)
 Exchange Functional    Exchange        .... WB97X-D3
 Correlation Functional Correlation     .... WB97X-D3
 Gradients option       PostSCFGGA      .... off
 Hybrid DFT is turned on
   Fraction HF Exchange ScalHFX         ....  0.195728
   Scaling of DF-GGA-X  ScalDFX         ....  0.000000
   Scaling of DF-GGA-C  ScalDFC         ....  1.000000
   Scaling of DF-LDA-C  ScalLDAC        ....  1.000000
   Perturbative correction              ....  0.000000
   Density functional embedding theory  .... OFF
 Long-range corrected/Screened/Range-Separated Hybrid DFT is turned on
   Amount of maximum screened exact exchange              ....  0.804272
   Range separation parameter mu (erf(mu*r12)/r12)        ....  0.250000
 RI-approximation to the Coulomb term is turned on
   Number of AuxJ basis functions       .... 1236
   RIJ-COSX (HFX calculated with COS-X)).... on


General Settings:
 Integral files         IntName         .... /burg/berkelbach/users/eav2136/projects/peroxide_dissociation/05_range_separated_functional/wb97x-d-peroxide-dmso/wb97x-d-peroxide-dmso_opt
 Hartree-Fock type      HFTyp           .... UHF
 Total Charge           Charge          ....    0
 Multiplicity           Mult            ....    1
 Number of Electrons    NEL             ....  174
 Basis Dimension        Dim             ....  778
 Nuclear Repulsion      ENuc            ....   1970.1422469238 Eh

Convergence Acceleration:
 DIIS                   CNVDIIS         .... on
   Start iteration      DIISMaxIt       ....    12
   Startup error        DIISStart       ....  0.200000
   # of expansion vecs  DIISMaxEq       ....     5
   Bias factor          DIISBfac        ....   1.050
   Max. coefficient     DIISMaxC        ....  10.000
 Trust-Rad. Augm. Hess. CNVTRAH         .... auto
   Auto Start mean grad. ratio tolernc. ....  1.125000
   Auto Start start iteration           ....    20
   Auto Start num. interpolation iter.  ....    10
   Max. Number of Micro iterations      ....    16
   Max. Number of Macro iterations      .... Maxiter - #DIIS iter
   Number of Davidson start vectors     ....     2
   Converg. threshold I  (grad. norm)   ....   1.000e-05
   Converg. threshold II (energy diff.) ....   1.000e-08
   Grad. Scal. Fac. for Micro threshold ....   0.100
   Minimum threshold for Micro iter.    ....   0.010
   NR start threshold (gradient norm)   ....   0.001
   Initial trust radius                 ....   0.400
   Minimum AH scaling param. (alpha)    ....   1.000
   Maximum AH scaling param. (alpha)    .... 1000.000
   Orbital update algorithm             .... Taylor
   White noise on init. David. guess    .... on
   Maximum white noise                  ....   0.010
   Quad. conv. algorithm                .... NR
 SOSCF                  CNVSOSCF        .... off
 Level Shifting         CNVShift        .... on
   Level shift para.    LevelShift      ....    0.2500
   Turn off err/grad.   ShiftErr        ....    0.0010
 Zerner damping         CNVZerner       .... off
 Static damping         CNVDamp         .... on
   Fraction old density DampFac         ....    0.7000
   Max. Damping (<1)    DampMax         ....    0.9800
   Min. Damping (>=0)   DampMin         ....    0.0000
   Turn off err/grad.   DampErr         ....    0.1000
 Fernandez-Rico         CNVRico         .... off

SCF Procedure:
 Maximum # iterations   MaxIter         ....   125
 SCF integral mode      SCFMode         .... Direct
   Integral package                     .... SHARK and LIBINT hybrid scheme
 Reset frequency        DirectResetFreq ....    20
 Integral Threshold     Thresh          ....  2.500e-11 Eh
 Primitive CutOff       TCut            ....  2.500e-12 Eh

Convergence Tolerance:
 Convergence Check Mode ConvCheckMode   .... Total+1el-Energy
 Convergence forced     ConvForced      .... 0
 Energy Change          TolE            ....  1.000e-08 Eh
 1-El. energy change                    ....  1.000e-05 Eh
 DIIS Error             TolErr          ....  5.000e-07


Diagonalization of the overlap matrix:
Smallest eigenvalue                        ... 6.410e-06
Time for diagonalization                   ...    0.104 sec
Threshold for overlap eigenvalues          ... 1.000e-08
Number of eigenvalues below threshold      ... 0
Time for construction of square roots      ...    0.061 sec
Total time needed                          ...    0.167 sec

Time for model grid setup =    0.264 sec

------------------------------
INITIAL GUESS: MODEL POTENTIAL
------------------------------
Loading Hartree-Fock densities                     ... done
Calculating cut-offs                               ... done
Initializing the effective Hamiltonian             ... done
Setting up the integral package (SHARK)            ... done
Starting the Coulomb interaction                   ... done (   0.5 sec)
Reading the grid                                   ... done
Mapping shells                                     ... done
Starting the XC term evaluation                    ... done (   0.3 sec)
  promolecular density results
     # of electrons  =    174.001529421
     EX              =   -168.410428734
     EC              =     -6.029879073
     EX+EC           =   -174.440307808
Transforming the Hamiltonian                       ... done (   0.1 sec)
Diagonalizing the Hamiltonian                      ... done (   0.1 sec)
Back transforming the eigenvectors                 ... done (   0.0 sec)
Now organizing SCF variables                       ... done
                      ------------------
                      INITIAL GUESS DONE (   1.3 sec)
                      ------------------
-------------------
DFT GRID GENERATION
-------------------

General Integration Accuracy     IntAcc      ... 4.388
Radial Grid Type                 RadialGrid  ... OptM3 with GC (2021)
Angular Grid (max. ang.)         AngularGrid ... 4 (Lebedev-302)
Angular grid pruning method      GridPruning ... 4 (adaptive)
Weight generation scheme         WeightScheme... Becke
Basis function cutoff            BFCut       ... 1.0000e-11
Integration weight cutoff        WCut        ... 1.0000e-14
Angular grids for H and He will be reduced by one unit
Partially contracted basis set               ... off
Rotationally invariant grid construction     ... off

Total number of grid points                  ...   179155
Total number of batches                      ...     2817
Average number of points per batch           ...       63
Average number of grid points per atom       ...     4977
Time for grid setup =    1.111 sec

--------------------
COSX GRID GENERATION
--------------------

GRIDX 1
-------
General Integration Accuracy     IntAcc      ... 3.816
Radial Grid Type                 RadialGrid  ... OptM3 with GC (2021)
Angular Grid (max. ang.)         AngularGrid ... 1 (Lebedev-50)
Angular grid pruning method      GridPruning ... 4 (adaptive)
Weight generation scheme         WeightScheme... Becke
Basis function cutoff            BFCut       ... 1.0000e-11
Integration weight cutoff        WCut        ... 1.0000e-14
Angular grids for H and He will be reduced by one unit
Partially contracted basis set               ... on
Rotationally invariant grid construction     ... off

Total number of grid points                  ...    22611
Total number of batches                      ...      371
Average number of points per batch           ...       60
Average number of grid points per atom       ...      628
UseSFitting                                  ... on

GRIDX 2
-------
General Integration Accuracy     IntAcc      ... 4.020
Radial Grid Type                 RadialGrid  ... OptM3 with GC (2021)
Angular Grid (max. ang.)         AngularGrid ... 2 (Lebedev-110)
Angular grid pruning method      GridPruning ... 4 (adaptive)
Weight generation scheme         WeightScheme... Becke
Basis function cutoff            BFCut       ... 1.0000e-11
Integration weight cutoff        WCut        ... 1.0000e-14
Angular grids for H and He will be reduced by one unit
Partially contracted basis set               ... on
Rotationally invariant grid construction     ... off

Total number of grid points                  ...    49564
Total number of batches                      ...      788
Average number of points per batch           ...       62
Average number of grid points per atom       ...     1377
UseSFitting                                  ... on

GRIDX 3
-------
General Integration Accuracy     IntAcc      ... 4.338
Radial Grid Type                 RadialGrid  ... OptM3 with GC (2021)
Angular Grid (max. ang.)         AngularGrid ... 3 (Lebedev-194)
Angular grid pruning method      GridPruning ... 4 (adaptive)
Weight generation scheme         WeightScheme... Becke
Basis function cutoff            BFCut       ... 1.0000e-11
Integration weight cutoff        WCut        ... 1.0000e-14
Angular grids for H and He will be reduced by one unit
Partially contracted basis set               ... on
Rotationally invariant grid construction     ... off

Total number of grid points                  ...   109616
Total number of batches                      ...     1732
Average number of points per batch           ...       63
Average number of grid points per atom       ...     3045
UseSFitting                                  ... on

Time for X-Grid setup             =    1.863 sec


--------------------
CPCM SOLVATION MODEL
--------------------
CPCM parameters:
  Epsilon                                         ...      46.8260
  Refrac                                          ...       1.4170
  Rsolv                                           ...       1.3000
  Surface type                                    ... GAUSSIAN VDW
  Epsilon function type                           ...         CPCM
Solvent:                                     ... DMSO
SMD-CDS solvent descriptors:
  Soln                                       ...    1.4170
  Soln25                                     ...    1.4773
  Sola                                       ...    0.0000
  Solb                                       ...    0.8800
  Solg                                       ...   61.7800
  Solc                                       ...    0.0000
  Solh                                       ...    0.0000
Radii:
 Radius for C  used is    3.4960 Bohr (=   1.8500 Ang.)
 Radius for S  used is    4.7054 Bohr (=   2.4900 Ang.)
 Radius for O  used is    4.3350 Bohr (=   2.2940 Ang.)
 Radius for H  used is    2.2677 Bohr (=   1.2000 Ang.)
Calculating surface                               ...        done! (  0.0s)
GEPOL surface points                              ...         1874
GEPOL Volume                                      ...    2715.5404
GEPOL Surface-area                                ...    1360.8946
Calculating surface distance matrix               ...        done! (  0.0s)
Performing Cholesky decomposition & store         ...        done! (  0.2s)
Overall time for CPCM initialization              ...                 0.2s
--------------
SCF ITERATIONS
--------------
ITER       Energy         Delta-E        Max-DP      RMS-DP      [F,P]     Damp
               ***  Starting incremental Fock matrix formation  ***
  0  -1714.9174154536   0.000000000000 0.02380795  0.00029617  0.1374474 0.7000
  1  -1715.1427425459  -0.225327092252 0.02087314  0.00023776  0.0644230 0.7000
                               ***Turning on DIIS***
  2  -1715.2488513042  -0.106108758379 0.03378506  0.00048175  0.0230842 0.0000
  3  -1715.4286238108  -0.179772506543 0.01613612  0.00016808  0.0296042 0.0000
  4  -1715.4552750261  -0.026651215284 0.00850569  0.00008709  0.0061267 0.0000
  5  -1715.4568021448  -0.001527118706 0.00579042  0.00005929  0.0040222 0.0000
  6  -1715.4572249286  -0.000422783797 0.00388305  0.00004189  0.0012616 0.0000
  7  -1715.4573749558  -0.000150027236 0.00325300  0.00003967  0.0007714 0.0000
               *** Restarting incremental Fock matrix formation ***
                                   *** Resetting DIIS ***
  8  -1715.4574021647  -0.000027208884 0.00136216  0.00002173  0.0008300 0.0000
  9  -1715.4574066469  -0.000004482254 0.00021521  0.00000179  0.0012030 0.0000
 10  -1715.4574120114  -0.000005364510 0.00033412  0.00000426  0.0001159 0.0000
 11  -1715.4574136316  -0.000001620192 0.00017482  0.00000220  0.0000692 0.0000
 12  -1715.4574139240  -0.000000292316 0.00005245  0.00000066  0.0000501 0.0000
 13  -1715.4574139510  -0.000000027060 0.00002188  0.00000031  0.0000161 0.0000
                 **** Energy Check signals convergence ****

               *****************************************************
               *                     SUCCESS                       *
               *           SCF CONVERGED AFTER  14 CYCLES          *
               *****************************************************

Old exchange energy                            =    -52.178566604 Eh
New exchange energy                            =    -52.178539408 Eh
Exchange energy change after final integration =      0.000027196 Eh
Total energy after final integration           =  -1715.457386749 Eh
Final COS-X integration done in                =    47.783 sec

SMD CDS free energy correction energy :                -4.21891     Kcal/mol
Total Energy after SMD CDS correction =             -1715.464110005 Eh

----------------
TOTAL SCF ENERGY
----------------

Total Energy       :        -1715.46411000 Eh          -46680.15161 eV

Components:
Nuclear Repulsion  :         1970.14224692 Eh           53610.29603 eV
Electronic Energy  :        -3685.60635693 Eh         -100290.44764 eV
One Electron Energy:        -6268.00979855 Eh         -170561.21778 eV
Two Electron Energy:         2582.40344162 Eh           70270.77014 eV
Max COSX asymmetry :            0.00000039 Eh               0.00001 eV
CPCM Dielectric    :           -0.02589061 Eh              -0.70452 eV
SMD CDS (Gcds)     :           -0.00672326 Eh              -0.18295 eV

Virial components:
Potential Energy   :        -3425.82416983 Eh          -93221.41495 eV
Kinetic Energy     :         1710.36005983 Eh           46541.26334 eV
Virial Ratio       :            2.00298420


DFT components:
N(Alpha)           :       86.999994594905 electrons
N(Beta)            :       86.999994594905 electrons
N(Total)           :      173.999989189810 electrons
E(XC)              :     -125.562893711470 Eh       
DFET-embed. en.    :        0.000000000000 Eh       
CPCM Solvation Model Properties:
Surface-charge          :           -0.03178994
Charge-correction       :            0.00038191 Eh               0.01039 eV
Free-energy (cav+disp)  :           -0.00672326 Eh              -0.18295 eV

---------------
SCF CONVERGENCE
---------------

  Last Energy change         ...    6.3196e-09  Tolerance :   1.0000e-08
  Last MAX-Density change    ...    0.0000e+00  Tolerance :   1.0000e-07
  Last RMS-Density change    ...    0.0000e+00  Tolerance :   5.0000e-09
  Last DIIS Error            ...    4.7542e-06  Tolerance :   5.0000e-07

             **** THE GBW FILE WAS UPDATED (/burg/berkelbach/users/eav2136/projects/peroxide_dissociation/05_range_separated_functional/wb97x-d-peroxide-dmso/wb97x-d-peroxide-dmso_opt.gbw) ****
             **** DENSITY /burg/berkelbach/users/eav2136/projects/peroxide_dissociation/05_range_separated_functional/wb97x-d-peroxide-dmso/wb97x-d-peroxide-dmso_opt.scfp WAS UPDATED ****
             **** ENERGY FILE WAS UPDATED (/burg/berkelbach/users/eav2136/projects/peroxide_dissociation/05_range_separated_functional/wb97x-d-peroxide-dmso/wb97x-d-peroxide-dmso_opt.en.tmp) ****
----------------------
UHF SPIN CONTAMINATION
----------------------

Warning: in a DFT calculation there is little theoretical justification to 
         calculate <S**2> as in Hartree-Fock theory. We will do it anyways
         but you should keep in mind that the values have only limited relevance

Expectation value of <S**2>     :     0.000000
Ideal value S*(S+1) for S=0.0   :     0.000000
Deviation                       :     0.000000

             **** THE GBW FILE WAS UPDATED (/burg/berkelbach/users/eav2136/projects/peroxide_dissociation/05_range_separated_functional/wb97x-d-peroxide-dmso/wb97x-d-peroxide-dmso_opt.gbw) ****
             **** DENSITY /burg/berkelbach/users/eav2136/projects/peroxide_dissociation/05_range_separated_functional/wb97x-d-peroxide-dmso/wb97x-d-peroxide-dmso_opt.scfp WAS UPDATED ****
----------------
ORBITAL ENERGIES
----------------
                 SPIN UP ORBITALS
  NO   OCC          E(Eh)            E(eV) 
   0   1.0000     -88.958471     -2420.6831 
   1   1.0000     -88.957154     -2420.6472 
   2   1.0000     -19.350510      -526.5541 
   3   1.0000     -19.348722      -526.5055 
   4   1.0000     -19.242666      -523.6196 
   5   1.0000     -19.238858      -523.5159 
   6   1.0000     -10.431665      -283.8600 
   7   1.0000     -10.428824      -283.7827 
   8   1.0000     -10.330303      -281.1018 
   9   1.0000     -10.328202      -281.0447 
  10   1.0000     -10.304911      -280.4109 
  11   1.0000     -10.303184      -280.3639 
  12   1.0000     -10.299534      -280.2646 
  13   1.0000     -10.299213      -280.2558 
  14   1.0000     -10.297056      -280.1971 
  15   1.0000     -10.296530      -280.1828 
  16   1.0000     -10.296096      -280.1710 
  17   1.0000     -10.295581      -280.1570 
  18   1.0000     -10.289996      -280.0050 
  19   1.0000     -10.289761      -279.9986 
  20   1.0000     -10.289717      -279.9974 
  21   1.0000     -10.289417      -279.9893 
  22   1.0000      -8.055617      -219.2045 
  23   1.0000      -8.054291      -219.1684 
  24   1.0000      -6.009506      -163.5270 
  25   1.0000      -6.008205      -163.4916 
  26   1.0000      -6.005387      -163.4149 
  27   1.0000      -6.004098      -163.3798 
  28   1.0000      -6.001001      -163.2955 
  29   1.0000      -5.999622      -163.2580 
  30   1.0000      -1.326688       -36.1010 
  31   1.0000      -1.214995       -33.0617 
  32   1.0000      -1.182259       -32.1709 
  33   1.0000      -1.085405       -29.5354 
  34   1.0000      -1.004949       -27.3460 
  35   1.0000      -1.003699       -27.3120 
  36   1.0000      -0.937848       -25.5201 
  37   1.0000      -0.936057       -25.4714 
  38   1.0000      -0.883078       -24.0298 
  39   1.0000      -0.881114       -23.9763 
  40   1.0000      -0.874569       -23.7982 
  41   1.0000      -0.872199       -23.7337 
  42   1.0000      -0.803132       -21.8543 
  43   1.0000      -0.787858       -21.4387 
  44   1.0000      -0.754747       -20.5377 
  45   1.0000      -0.737614       -20.0715 
  46   1.0000      -0.735861       -20.0238 
  47   1.0000      -0.718702       -19.5569 
  48   1.0000      -0.696366       -18.9491 
  49   1.0000      -0.682722       -18.5778 
  50   1.0000      -0.663506       -18.0549 
  51   1.0000      -0.653016       -17.7695 
  52   1.0000      -0.618603       -16.8330 
  53   1.0000      -0.599692       -16.3185 
  54   1.0000      -0.587382       -15.9835 
  55   1.0000      -0.584820       -15.9138 
  56   1.0000      -0.572719       -15.5845 
  57   1.0000      -0.567681       -15.4474 
  58   1.0000      -0.564490       -15.3605 
  59   1.0000      -0.554818       -15.0974 
  60   1.0000      -0.551609       -15.0101 
  61   1.0000      -0.539206       -14.6725 
  62   1.0000      -0.535187       -14.5632 
  63   1.0000      -0.531554       -14.4643 
  64   1.0000      -0.530785       -14.4434 
  65   1.0000      -0.530280       -14.4296 
  66   1.0000      -0.519656       -14.1406 
  67   1.0000      -0.503353       -13.6969 
  68   1.0000      -0.498878       -13.5752 
  69   1.0000      -0.493877       -13.4391 
  70   1.0000      -0.490746       -13.3539 
  71   1.0000      -0.468821       -12.7573 
  72   1.0000      -0.464816       -12.6483 
  73   1.0000      -0.455943       -12.4068 
  74   1.0000      -0.449296       -12.2260 
  75   1.0000      -0.447639       -12.1809 
  76   1.0000      -0.422693       -11.5021 
  77   1.0000      -0.418758       -11.3950 
  78   1.0000      -0.417752       -11.3676 
  79   1.0000      -0.407458       -11.0875 
  80   1.0000      -0.401522       -10.9260 
  81   1.0000      -0.394267       -10.7286 
  82   1.0000      -0.387964       -10.5571 
  83   1.0000      -0.359800        -9.7907 
  84   1.0000      -0.356579        -9.7030 
  85   1.0000      -0.303502        -8.2587 
  86   1.0000      -0.301895        -8.2150 
  87   0.0000       0.006826         0.1857 
  88   0.0000       0.021105         0.5743 
  89   0.0000       0.051200         1.3932 
  90   0.0000       0.053646         1.4598 
  91   0.0000       0.075969         2.0672 
  92   0.0000       0.103809         2.8248 
  93   0.0000       0.108484         2.9520 
  94   0.0000       0.111464         3.0331 
  95   0.0000       0.121935         3.3180 
  96   0.0000       0.127802         3.4777 
  97   0.0000       0.141845         3.8598 
  98   0.0000       0.155043         4.2189 
  99   0.0000       0.155137         4.2215 
 100   0.0000       0.164673         4.4810 
 101   0.0000       0.165774         4.5109 
 102   0.0000       0.168750         4.5919 
 103   0.0000       0.178281         4.8513 
 104   0.0000       0.186503         5.0750 
 105   0.0000       0.191569         5.2129 
 106   0.0000       0.192904         5.2492 
 107   0.0000       0.194353         5.2886 
 108   0.0000       0.197687         5.3793 
 109   0.0000       0.204159         5.5554 
 110   0.0000       0.208126         5.6634 
 111   0.0000       0.213086         5.7984 
 112   0.0000       0.219428         5.9709 
 113   0.0000       0.221474         6.0266 
 114   0.0000       0.224050         6.0967 
 115   0.0000       0.236013         6.4222 
 116   0.0000       0.239314         6.5121 
 117   0.0000       0.242192         6.5904 
 118   0.0000       0.254664         6.9298 
 119   0.0000       0.262164         7.1338 
 120   0.0000       0.270541         7.3618 
 121   0.0000       0.276495         7.5238 
 122   0.0000       0.282935         7.6991 
 123   0.0000       0.286702         7.8016 
 124   0.0000       0.291024         7.9192 
 125   0.0000       0.297591         8.0978 
 126   0.0000       0.300850         8.1866 
 127   0.0000       0.301512         8.2046 
 128   0.0000       0.304961         8.2984 
 129   0.0000       0.307048         8.3552 
 130   0.0000       0.313315         8.5257 
 131   0.0000       0.318851         8.6764 
 132   0.0000       0.322644         8.7796 
 133   0.0000       0.323499         8.8029 
 134   0.0000       0.328764         8.9461 
 135   0.0000       0.332743         9.0544 
 136   0.0000       0.335717         9.1353 
 137   0.0000       0.337322         9.1790 
 138   0.0000       0.341141         9.2829 
 139   0.0000       0.342399         9.3171 
 140   0.0000       0.350024         9.5246 
 141   0.0000       0.361585         9.8392 
 142   0.0000       0.367229         9.9928 
 143   0.0000       0.370312        10.0767 
 144   0.0000       0.374691        10.1958 
 145   0.0000       0.378235        10.2923 
 146   0.0000       0.383098        10.4246 
 147   0.0000       0.395980        10.7752 
 148   0.0000       0.397688        10.8216 
 149   0.0000       0.403544        10.9810 
 150   0.0000       0.406467        11.0605 
 151   0.0000       0.410785        11.1780 
 152   0.0000       0.416184        11.3250 
 153   0.0000       0.421091        11.4585 
 154   0.0000       0.422804        11.5051 
 155   0.0000       0.426657        11.6099 
 156   0.0000       0.430429        11.7126 
 157   0.0000       0.442374        12.0376 
 158   0.0000       0.445493        12.1225 
 159   0.0000       0.450318        12.2538 
 160   0.0000       0.454163        12.3584 
 161   0.0000       0.457993        12.4626 
 162   0.0000       0.462120        12.5749 
 163   0.0000       0.465169        12.6579 
 164   0.0000       0.471307        12.8249 
 165   0.0000       0.474649        12.9159 
 166   0.0000       0.483500        13.1567 
 167   0.0000       0.485001        13.1976 
 168   0.0000       0.487509        13.2658 
 169   0.0000       0.493311        13.4237 
 170   0.0000       0.494641        13.4599 
 171   0.0000       0.497017        13.5245 
 172   0.0000       0.503351        13.6969 
 173   0.0000       0.506599        13.7852 
 174   0.0000       0.512171        13.9369 
 175   0.0000       0.516022        14.0417 
 176   0.0000       0.522810        14.2264 
 177   0.0000       0.527008        14.3406 
 178   0.0000       0.530966        14.4483 
 179   0.0000       0.537758        14.6331 
 180   0.0000       0.540877        14.7180 
 181   0.0000       0.548347        14.9213 
 182   0.0000       0.552071        15.0226 
 183   0.0000       0.557673        15.1750 
 184   0.0000       0.559057        15.2127 
 185   0.0000       0.561828        15.2881 
 186   0.0000       0.569850        15.5064 
 187   0.0000       0.572252        15.5718 
 188   0.0000       0.578139        15.7320 
 189   0.0000       0.580532        15.7971 
 190   0.0000       0.584646        15.9090 
 191   0.0000       0.587030        15.9739 
 192   0.0000       0.592786        16.1305 
 193   0.0000       0.599745        16.3199 
 194   0.0000       0.606571        16.5056 
 195   0.0000       0.612310        16.6618 
 196   0.0000       0.615056        16.7365 
 197   0.0000       0.625691        17.0259 
 198   0.0000       0.628913        17.1136 
 199   0.0000       0.632835        17.2203 
 200   0.0000       0.636470        17.3192 
 201   0.0000       0.640380        17.4256 
 202   0.0000       0.641828        17.4650 
 203   0.0000       0.655002        17.8235 
 204   0.0000       0.662498        18.0275 
 205   0.0000       0.671325        18.2677 
 206   0.0000       0.680640        18.5211 
 207   0.0000       0.683795        18.6070 
 208   0.0000       0.688836        18.7442 
 209   0.0000       0.695326        18.9208 
 210   0.0000       0.708715        19.2851 
 211   0.0000       0.717283        19.5183 
 212   0.0000       0.720144        19.5961 
 213   0.0000       0.727863        19.8061 
 214   0.0000       0.733543        19.9607 
 215   0.0000       0.738707        20.1012 
 216   0.0000       0.747458        20.3394 
 217   0.0000       0.758559        20.6414 
 218   0.0000       0.762720        20.7547 
 219   0.0000       0.764982        20.8162 
 220   0.0000       0.773414        21.0457 
 221   0.0000       0.780553        21.2399 
 222   0.0000       0.784141        21.3376 
 223   0.0000       0.786398        21.3990 
 224   0.0000       0.790920        21.5220 
 225   0.0000       0.800029        21.7699 
 226   0.0000       0.801371        21.8064 
 227   0.0000       0.808093        21.9893 
 228   0.0000       0.813612        22.1395 
 229   0.0000       0.818007        22.2591 
 230   0.0000       0.827615        22.5206 
 231   0.0000       0.834640        22.7117 
 232   0.0000       0.844759        22.9871 
 233   0.0000       0.849169        23.1071 
 234   0.0000       0.856298        23.3010 
 235   0.0000       0.859702        23.3937 
 236   0.0000       0.864102        23.5134 
 237   0.0000       0.866226        23.5712 
 238   0.0000       0.867444        23.6044 
 239   0.0000       0.881993        24.0002 
 240   0.0000       0.886805        24.1312 
 241   0.0000       0.890718        24.2377 
 242   0.0000       0.892216        24.2784 
 243   0.0000       0.902076        24.5467 
 244   0.0000       0.904790        24.6206 
 245   0.0000       0.913036        24.8450 
 246   0.0000       0.921300        25.0699 
 247   0.0000       0.932583        25.3769 
 248   0.0000       0.943471        25.6731 
 249   0.0000       0.946248        25.7487 
 250   0.0000       0.955376        25.9971 
 251   0.0000       0.958701        26.0876 
 252   0.0000       0.962518        26.1914 
 253   0.0000       0.974055        26.5054 
 254   0.0000       0.978088        26.6151 
 255   0.0000       0.985243        26.8098 
 256   0.0000       0.996583        27.1184 
 257   0.0000       0.998682        27.1755 
 258   0.0000       1.005936        27.3729 
 259   0.0000       1.012452        27.5502 
 260   0.0000       1.016640        27.6642 
 261   0.0000       1.030672        28.0460 
 262   0.0000       1.031939        28.0805 
 263   0.0000       1.042078        28.3564 
 264   0.0000       1.052412        28.6376 
 265   0.0000       1.056015        28.7356 
 266   0.0000       1.061516        28.8853 
 267   0.0000       1.066683        29.0259 
 268   0.0000       1.070614        29.1329 
 269   0.0000       1.088752        29.6264 
 270   0.0000       1.092171        29.7195 
 271   0.0000       1.098592        29.8942 
 272   0.0000       1.105152        30.0727 
 273   0.0000       1.114876        30.3373 
 274   0.0000       1.126250        30.6468 
 275   0.0000       1.132018        30.8038 
 276   0.0000       1.137790        30.9608 
 277   0.0000       1.146162        31.1887 
 278   0.0000       1.163491        31.6602 
 279   0.0000       1.165432        31.7130 
 280   0.0000       1.175092        31.9759 
 281   0.0000       1.178885        32.0791 
 282   0.0000       1.188175        32.3319 
 283   0.0000       1.196454        32.5572 
 284   0.0000       1.216959        33.1151 
 285   0.0000       1.221669        33.2433 
 286   0.0000       1.237713        33.6799 
 287   0.0000       1.250579        34.0300 
 288   0.0000       1.260873        34.3101 
 289   0.0000       1.267322        34.4856 
 290   0.0000       1.283330        34.9212 
 291   0.0000       1.297771        35.3142 
 292   0.0000       1.305129        35.5144 
 293   0.0000       1.312704        35.7205 
 294   0.0000       1.317464        35.8500 
 295   0.0000       1.324553        36.0429 
 296   0.0000       1.327997        36.1366 
 297   0.0000       1.331944        36.2440 
 298   0.0000       1.342547        36.5326 
 299   0.0000       1.352596        36.8060 
 300   0.0000       1.367228        37.2042 
 301   0.0000       1.370982        37.3063 
 302   0.0000       1.383343        37.6427 
 303   0.0000       1.387059        37.7438 
 304   0.0000       1.390971        37.8503 
 305   0.0000       1.393686        37.9241 
 306   0.0000       1.408161        38.3180 
 307   0.0000       1.422514        38.7086 
 308   0.0000       1.425002        38.7763 
 309   0.0000       1.436582        39.0914 
 310   0.0000       1.452332        39.5200 
 311   0.0000       1.463573        39.8259 
 312   0.0000       1.479309        40.2540 
 313   0.0000       1.487667        40.4815 
 314   0.0000       1.504690        40.9447 
 315   0.0000       1.515778        41.2464 
 316   0.0000       1.533903        41.7396 
 317   0.0000       1.538489        41.8644 
 318   0.0000       1.544576        42.0300 
 319   0.0000       1.549224        42.1565 
 320   0.0000       1.557371        42.3782 
 321   0.0000       1.564577        42.5743 
 322   0.0000       1.575829        42.8805 
 323   0.0000       1.581608        43.0377 
 324   0.0000       1.588003        43.2118 
 325   0.0000       1.596113        43.4324 
 326   0.0000       1.601259        43.5725 
 327   0.0000       1.605183        43.6793 
 328   0.0000       1.608308        43.7643 
 329   0.0000       1.608984        43.7827 
 330   0.0000       1.615271        43.9538 
 331   0.0000       1.622531        44.1513 
 332   0.0000       1.624122        44.1946 
 333   0.0000       1.627895        44.2973 
 334   0.0000       1.630343        44.3639 
 335   0.0000       1.635355        44.5003 
 336   0.0000       1.644288        44.7434 
 337   0.0000       1.649332        44.8806 
 338   0.0000       1.652346        44.9626 
 339   0.0000       1.653910        45.0052 
 340   0.0000       1.658916        45.1414 
 341   0.0000       1.666087        45.3365 
 342   0.0000       1.671839        45.4931 
 343   0.0000       1.680132        45.7187 
 344   0.0000       1.683019        45.7973 
 345   0.0000       1.688471        45.9456 
 346   0.0000       1.696721        46.1701 
 347   0.0000       1.697862        46.2012 
 348   0.0000       1.704955        46.3942 
 349   0.0000       1.711861        46.5821 
 350   0.0000       1.717749        46.7423 
 351   0.0000       1.720890        46.8278 
 352   0.0000       1.723564        46.9006 
 353   0.0000       1.736619        47.2558 
 354   0.0000       1.749081        47.5949 
 355   0.0000       1.755914        47.7809 
 356   0.0000       1.762452        47.9587 
 357   0.0000       1.768536        48.1243 
 358   0.0000       1.776340        48.3367 
 359   0.0000       1.781823        48.4859 
 360   0.0000       1.785337        48.5815 
 361   0.0000       1.788961        48.6801 
 362   0.0000       1.793034        48.7909 
 363   0.0000       1.798866        48.9496 
 364   0.0000       1.812856        49.3303 
 365   0.0000       1.817391        49.4537 
 366   0.0000       1.821784        49.5733 
 367   0.0000       1.832099        49.8540 
 368   0.0000       1.843633        50.1678 
 369   0.0000       1.846825        50.2547 
 370   0.0000       1.873842        50.9898 
 371   0.0000       1.879228        51.1364 
 372   0.0000       1.891756        51.4773 
 373   0.0000       1.907859        51.9155 
 374   0.0000       1.908172        51.9240 
 375   0.0000       1.915529        52.1242 
 376   0.0000       1.919689        52.2374 
 377   0.0000       1.922606        52.3168 
 378   0.0000       1.926637        52.4265 
 379   0.0000       1.936911        52.7060 
 380   0.0000       1.940133        52.7937 
 381   0.0000       1.942926        52.8697 
 382   0.0000       1.949314        53.0435 
 383   0.0000       1.952507        53.1304 
 384   0.0000       1.959718        53.3266 
 385   0.0000       1.962017        53.3892 
 386   0.0000       1.969767        53.6001 
 387   0.0000       1.972812        53.6829 
 388   0.0000       1.977068        53.7988 
 389   0.0000       1.982743        53.9532 
 390   0.0000       1.995429        54.2984 
 391   0.0000       1.998433        54.3801 
 392   0.0000       2.015798        54.8526 
 393   0.0000       2.026874        55.1541 
 394   0.0000       2.040816        55.5334 
 395   0.0000       2.058361        56.0108 
 396   0.0000       2.063828        56.1596 
 397   0.0000       2.069129        56.3039 
 398   0.0000       2.072617        56.3988 
 399   0.0000       2.093922        56.9785 
 400   0.0000       2.107340        57.3436 
 401   0.0000       2.112991        57.4974 
 402   0.0000       2.122991        57.7695 
[...]
      dx2y2   :    -0.000000
      dxy     :     0.000000
      f0      :     0.000000  f :     0.000000
      f+1     :    -0.000000
      f-1     :     0.000000
      f+2     :     0.000000
      f-2     :    -0.000000
      f+3     :     0.000000
      f-3     :     0.000000
  7 C s       :     0.000000  s :     0.000000
      pz      :    -0.000000  p :    -0.000000
      px      :    -0.000000
      py      :     0.000000
      dz2     :     0.000000  d :    -0.000000
      dxz     :    -0.000000
      dyz     :    -0.000000
      dx2y2   :    -0.000000
      dxy     :     0.000000
      f0      :    -0.000000  f :     0.000000
      f+1     :    -0.000000
      f-1     :     0.000000
      f+2     :     0.000000
      f-2     :     0.000000
      f+3     :    -0.000000
      f-3     :     0.000000
  8 C s       :    -0.000000  s :    -0.000000
      pz      :    -0.000000  p :    -0.000000
      px      :    -0.000000
      py      :     0.000000
      dz2     :     0.000000  d :     0.000000
      dxz     :    -0.000000
      dyz     :     0.000000
      dx2y2   :     0.000000
      dxy     :    -0.000000
      f0      :     0.000000  f :     0.000000
      f+1     :    -0.000000
      f-1     :    -0.000000
      f+2     :     0.000000
      f-2     :     0.000000
      f+3     :    -0.000000
      f-3     :     0.000000
  9 O s       :     0.000000  s :     0.000000
      pz      :    -0.000000  p :    -0.000000
      px      :    -0.000000
      py      :     0.000000
      dz2     :     0.000000  d :    -0.000000
      dxz     :     0.000000
      dyz     :    -0.000000
      dx2y2   :    -0.000000
      dxy     :    -0.000000
      f0      :    -0.000000  f :    -0.000000
      f+1     :     0.000000
      f-1     :     0.000000
      f+2     :    -0.000000
      f-2     :    -0.000000
      f+3     :     0.000000
      f-3     :    -0.000000
 10 O s       :     0.000000  s :     0.000000
      pz      :     0.000000  p :     0.000000
      px      :     0.000000
      py      :     0.000000
      dz2     :    -0.000000  d :    -0.000000
      dxz     :     0.000000
      dyz     :     0.000000
      dx2y2   :    -0.000000
      dxy     :     0.000000
      f0      :    -0.000000  f :    -0.000000
      f+1     :     0.000000
      f-1     :    -0.000000
      f+2     :     0.000000
      f-2     :    -0.000000
      f+3     :    -0.000000
      f-3     :     0.000000
 11 O s       :     0.000000  s :     0.000000
      pz      :    -0.000000  p :    -0.000000
      px      :     0.000000
      py      :     0.000000
      dz2     :     0.000000  d :     0.000000
      dxz     :    -0.000000
      dyz     :    -0.000000
      dx2y2   :    -0.000000
      dxy     :     0.000000
      f0      :    -0.000000  f :    -0.000000
      f+1     :    -0.000000
      f-1     :     0.000000
      f+2     :    -0.000000
      f-2     :     0.000000
      f+3     :    -0.000000
      f-3     :     0.000000
 12 C s       :    -0.000000  s :    -0.000000
      pz      :    -0.000000  p :    -0.000000
      px      :     0.000000
      py      :     0.000000
      dz2     :    -0.000000  d :    -0.000000
      dxz     :    -0.000000
      dyz     :    -0.000000
      dx2y2   :     0.000000
      dxy     :     0.000000
      f0      :    -0.000000  f :    -0.000000
      f+1     :    -0.000000
      f-1     :    -0.000000
      f+2     :     0.000000
      f-2     :     0.000000
      f+3     :    -0.000000
      f-3     :    -0.000000
 13 C s       :    -0.000000  s :    -0.000000
      pz      :    -0.000000  p :    -0.000000
      px      :     0.000000
      py      :     0.000000
      dz2     :    -0.000000  d :     0.000000
      dxz     :     0.000000
      dyz     :     0.000000
      dx2y2   :    -0.000000
      dxy     :     0.000000
      f0      :    -0.000000  f :    -0.000000
      f+1     :    -0.000000
      f-1     :    -0.000000
      f+2     :     0.000000
      f-2     :    -0.000000
      f+3     :    -0.000000
      f-3     :    -0.000000
 14 O s       :     0.000000  s :     0.000000
      pz      :    -0.000000  p :     0.000000
      px      :     0.000000
      py      :    -0.000000
      dz2     :    -0.000000  d :    -0.000000
      dxz     :    -0.000000
      dyz     :    -0.000000
      dx2y2   :    -0.000000
      dxy     :     0.000000
      f0      :    -0.000000  f :    -0.000000
      f+1     :     0.000000
      f-1     :    -0.000000
      f+2     :    -0.000000
      f-2     :     0.000000
      f+3     :    -0.000000
      f-3     :     0.000000
 15 C s       :     0.000000  s :     0.000000
      pz      :    -0.000000  p :    -0.000000
      px      :     0.000000
      py      :    -0.000000
      dz2     :     0.000000  d :     0.000000
      dxz     :    -0.000000
      dyz     :     0.000000
      dx2y2   :     0.000000
      dxy     :     0.000000
      f0      :     0.000000  f :     0.000000
      f+1     :     0.000000
      f-1     :    -0.000000
      f+2     :     0.000000
      f-2     :     0.000000
      f+3     :    -0.000000
      f-3     :    -0.000000
 16 C s       :     0.000000  s :     0.000000
      pz      :     0.000000  p :     0.000000
      px      :    -0.000000
      py      :     0.000000
      dz2     :     0.000000  d :    -0.000000
      dxz     :    -0.000000
      dyz     :    -0.000000
      dx2y2   :     0.000000
      dxy     :     0.000000
      f0      :     0.000000  f :    -0.000000
      f+1     :    -0.000000
      f-1     :    -0.000000
      f+2     :     0.000000
      f-2     :    -0.000000
      f+3     :    -0.000000
      f-3     :    -0.000000
 17 C s       :    -0.000000  s :    -0.000000
      pz      :     0.000000  p :     0.000000
      px      :     0.000000
      py      :    -0.000000
      dz2     :     0.000000  d :     0.000000
      dxz     :    -0.000000
      dyz     :     0.000000
      dx2y2   :     0.000000
      dxy     :     0.000000
      f0      :     0.000000  f :     0.000000
      f+1     :     0.000000
      f-1     :    -0.000000
      f+2     :    -0.000000
      f-2     :     0.000000
      f+3     :    -0.000000
      f-3     :    -0.000000
 18 C s       :    -0.000000  s :    -0.000000
      pz      :    -0.000000  p :     0.000000
      px      :     0.000000
      py      :     0.000000
      dz2     :    -0.000000  d :    -0.000000
      dxz     :    -0.000000
      dyz     :     0.000000
      dx2y2   :    -0.000000
      dxy     :    -0.000000
      f0      :     0.000000  f :    -0.000000
      f+1     :     0.000000
      f-1     :    -0.000000
      f+2     :    -0.000000
      f-2     :     0.000000
      f+3     :    -0.000000
      f-3     :    -0.000000
 19 C s       :     0.000000  s :     0.000000
      pz      :    -0.000000  p :    -0.000000
      px      :     0.000000
      py      :    -0.000000
      dz2     :    -0.000000  d :    -0.000000
      dxz     :    -0.000000
      dyz     :    -0.000000
      dx2y2   :     0.000000
      dxy     :    -0.000000
      f0      :     0.000000  f :     0.000000
      f+1     :     0.000000
      f-1     :     0.000000
      f+2     :    -0.000000
      f-2     :     0.000000
      f+3     :     0.000000
      f-3     :     0.000000
 20 S s       :     0.000000  s :     0.000000
      pz      :     0.000000  p :     0.000000
      px      :    -0.000000
      py      :    -0.000000
      dz2     :    -0.000000  d :    -0.000000
      dxz     :     0.000000
      dyz     :     0.000000
      dx2y2   :    -0.000000
      dxy     :    -0.000000
      f0      :    -0.000000  f :    -0.000000
      f+1     :    -0.000000
      f-1     :    -0.000000
      f+2     :    -0.000000
      f-2     :     0.000000
      f+3     :    -0.000000
      f-3     :    -0.000000
 21 C s       :     0.000000  s :     0.000000
      pz      :     0.000000  p :     0.000000
      px      :     0.000000
      py      :     0.000000
      dz2     :     0.000000  d :     0.000000
      dxz     :    -0.000000
      dyz     :    -0.000000
      dx2y2   :     0.000000
      dxy     :     0.000000
      f0      :    -0.000000  f :     0.000000
      f+1     :     0.000000
      f-1     :    -0.000000
      f+2     :    -0.000000
      f-2     :     0.000000
      f+3     :     0.000000
      f-3     :     0.000000
 22 H s       :    -0.000000  s :    -0.000000
      pz      :    -0.000000  p :     0.000000
      px      :     0.000000
      py      :     0.000000
 23 H s       :     0.000000  s :     0.000000
      pz      :     0.000000  p :    -0.000000
      px      :    -0.000000
      py      :     0.000000
 24 H s       :     0.000000  s :     0.000000
      pz      :    -0.000000  p :    -0.000000
      px      :    -0.000000
      py      :     0.000000
 25 H s       :    -0.000000  s :    -0.000000
      pz      :     0.000000  p :    -0.000000
      px      :    -0.000000
      py      :     0.000000
 26 H s       :     0.000000  s :     0.000000
      pz      :    -0.000000  p :    -0.000000
      px      :    -0.000000
      py      :    -0.000000
 27 H s       :     0.000000  s :     0.000000
      pz      :    -0.000000  p :    -0.000000
      px      :     0.000000
      py      :    -0.000000
 28 H s       :    -0.000000  s :    -0.000000
      pz      :    -0.000000  p :     0.000000
      px      :     0.000000
      py      :    -0.000000
 29 H s       :     0.000000  s :     0.000000
      pz      :    -0.000000  p :    -0.000000
      px      :    -0.000000
      py      :     0.000000
 30 H s       :     0.000000  s :     0.000000
      pz      :    -0.000000  p :    -0.000000
      px      :    -0.000000
      py      :     0.000000
 31 H s       :     0.000000  s :     0.000000
      pz      :     0.000000  p :    -0.000000
      px      :    -0.000000
      py      :    -0.000000
 32 H s       :     0.000000  s :     0.000000
      pz      :     0.000000  p :    -0.000000
      px      :    -0.000000
      py      :     0.000000
 33 H s       :    -0.000000  s :    -0.000000
      pz      :     0.000000  p :     0.000000
      px      :     0.000000
      py      :    -0.000000
 34 H s       :    -0.000000  s :    -0.000000
      pz      :     0.000000  p :     0.000000
      px      :    -0.000000
      py      :     0.000000
 35 H s       :    -0.000000  s :    -0.000000
      pz      :     0.000000  p :     0.000000
      px      :     0.000000
      py      :     0.000000


                      *****************************
                      * MAYER POPULATION ANALYSIS *
                      *****************************

  NA   - Mulliken gross atomic population
  ZA   - Total nuclear charge
  QA   - Mulliken gross atomic charge
  VA   - Mayer's total valence
  BVA  - Mayer's bonded valence
  FA   - Mayer's free valence

  ATOM       NA         ZA         QA         VA         BVA        FA
  0 C      6.4214     6.0000    -0.4214     3.9158     3.9158     0.0000
  1 S     16.0720    16.0000    -0.0720     2.3336     2.3336    -0.0000
  2 C      5.8204     6.0000     0.1796     3.6761     3.6761    -0.0000
  3 C      6.2936     6.0000    -0.2936     3.8839     3.8839     0.0000
  4 C      6.1873     6.0000    -0.1873     3.9222     3.9222    -0.0000
  5 C      5.9297     6.0000     0.0703     3.6087     3.6087     0.0000
  6 C      6.2221     6.0000    -0.2221     3.9193     3.9193    -0.0000
  7 C      6.2003     6.0000    -0.2003     3.8564     3.8564    -0.0000
  8 C      5.6802     6.0000     0.3198     4.2789     4.2789     0.0000
  9 O      8.1003     8.0000    -0.1003     2.0093     2.0093    -0.0000
 10 O      8.3103     8.0000    -0.3103     2.2019     2.2019    -0.0000
 11 O      8.1279     8.0000    -0.1279     1.9944     1.9944     0.0000
 12 C      5.6392     6.0000     0.3608     4.2788     4.2788    -0.0000
 13 C      5.9282     6.0000     0.0718     3.4950     3.4950     0.0000
 14 O      8.3288     8.0000    -0.3288     2.1854     2.1854     0.0000
 15 C      6.2348     6.0000    -0.2348     4.0154     4.0154     0.0000
 16 C      6.1587     6.0000    -0.1587     3.8285     3.8285    -0.0000
 17 C      5.8655     6.0000     0.1345     3.7904     3.7904     0.0000
 18 C      6.2641     6.0000    -0.2641     3.8539     3.8539    -0.0000
 19 C      6.2570     6.0000    -0.2570     4.0080     4.0080    -0.0000
 20 S     16.0480    16.0000    -0.0480     2.3909     2.3909    -0.0000
 21 C      6.4097     6.0000    -0.4097     3.9258     3.9258    -0.0000
 22 H      0.8111     1.0000     0.1889     0.9566     0.9566    -0.0000
 23 H      0.8388     1.0000     0.1612     0.9632     0.9632     0.0000
 24 H      0.8196     1.0000     0.1804     0.9565     0.9565    -0.0000
 25 H      0.8134     1.0000     0.1866     0.9546     0.9546    -0.0000
 26 H      0.8152     1.0000     0.1848     0.9662     0.9662     0.0000
 27 H      0.8233     1.0000     0.1767     0.9629     0.9629    -0.0000
 28 H      0.8301     1.0000     0.1699     0.9696     0.9696     0.0000
 29 H      0.8274     1.0000     0.1726     0.9788     0.9788    -0.0000
 30 H      0.8282     1.0000     0.1718     0.9665     0.9665    -0.0000
 31 H      0.8120     1.0000     0.1880     0.9618     0.9618    -0.0000
 32 H      0.8030     1.0000     0.1970     0.9591     0.9591    -0.0000
 33 H      0.8109     1.0000     0.1891     0.9583     0.9583    -0.0000
 34 H      0.8422     1.0000     0.1578     0.9685     0.9685     0.0000
 35 H      0.8255     1.0000     0.1745     0.9563     0.9563     0.0000

  Mayer bond orders larger than 0.100000
B(  0-C ,  1-S ) :   1.0416 B(  0-C , 22-H ) :   0.9427 B(  0-C , 23-H ) :   0.9534 
B(  0-C , 24-H ) :   0.9557 B(  1-S ,  2-C ) :   1.1239 B(  2-C ,  3-C ) :   1.2767 
B(  2-C ,  7-C ) :   1.2576 B(  3-C ,  4-C ) :   1.4273 B(  3-C , 25-H ) :   0.9739 
B(  4-C ,  5-C ) :   1.3236 B(  4-C , 26-H ) :   0.9815 B(  5-C ,  6-C ) :   1.2888 
B(  5-C ,  8-C ) :   0.9419 B(  6-C ,  7-C ) :   1.4619 B(  6-C , 27-H ) :   0.9979 
B(  7-C , 28-H ) :   0.9855 B(  8-C ,  9-O ) :   1.1029 B(  8-C , 10-O ) :   2.1355 
B(  9-O , 11-O ) :   0.8265 B( 11-O , 12-C ) :   1.0666 B( 12-C , 13-C ) :   1.0062 
B( 12-C , 14-O ) :   2.0685 B( 13-C , 15-C ) :   1.3030 B( 13-C , 19-C ) :   1.3119 
B( 15-C , 16-C ) :   1.5011 B( 15-C , 29-H ) :   0.9748 B( 16-C , 17-C ) :   1.2575 
B( 16-C , 30-H ) :   0.9818 B( 17-C , 18-C ) :   1.2675 B( 17-C , 20-S ) :   1.1887 
B( 18-C , 19-C ) :   1.4542 B( 18-C , 31-H ) :   0.9700 B( 19-C , 32-H ) :   0.9630 
B( 20-S , 21-C ) :   1.0571 B( 21-C , 33-H ) :   0.9428 B( 21-C , 34-H ) :   0.9535 
B( 21-C , 35-H ) :   0.9549 

-------
TIMINGS
-------

Total SCF time: 0 days 0 hours 3 min 51 sec 

Total time                  ....     231.762 sec
Sum of individual times     ....     229.398 sec  ( 99.0%)

Fock matrix formation       ....     221.891 sec  ( 95.7%)
  Split-RI-J                ....       7.961 sec  (  3.6% of F)
  Chain of spheres X        ....     188.133 sec  ( 84.8% of F)
  XC integration            ....      14.235 sec  (  6.4% of F)
    Basis function eval.    ....       2.582 sec  ( 18.1% of XC)
    Density eval.           ....       7.271 sec  ( 51.1% of XC)
    XC-Functional eval.     ....       0.336 sec  (  2.4% of XC)
    XC-Potential eval.      ....       3.096 sec  ( 21.7% of XC)
Diagonalization             ....       2.567 sec  (  1.1%)
Density matrix formation    ....       0.122 sec  (  0.1%)
Population analysis         ....       0.324 sec  (  0.1%)
Initial guess               ....       0.511 sec  (  0.2%)
Orbital Transformation      ....       0.000 sec  (  0.0%)
Orbital Orthonormalization  ....       0.453 sec  (  0.2%)
DIIS solution               ....       0.982 sec  (  0.4%)
Grid generation             ....       3.001 sec  (  1.3%)

Maximum memory used throughout the entire SCF-calculation: 190.9 MB


-------------------------------------------------------------------------------
                          DFT DISPERSION CORRECTION                            
                                                                               
                              DFTD3 V3.1  Rev 1                                
                              USING zero damping                               
-------------------------------------------------------------------------------
The omegaB97X-D3 functional is recognized. Fit by Chai et al.
Active option DFTDOPT                   ...         3   

molecular C6(AA) [au] = 19258.224379 


            DFT-D V3
 parameters
 s6 scaling factor         :     1.0000 
 rs6 scaling factor        :     1.2810 
 s8 scaling factor         :     1.0000 
 rs8 scaling factor        :     1.0940 
 Damping factor alpha6     :    14.0000 
 Damping factor alpha8     :    16.0000 
 ad hoc parameters k1-k3   :    16.0000     1.3333    -4.0000 

 Edisp/kcal,au: -14.188686164545  -0.022611108258 
 E6   /kcal   :  -6.831099926 
 E8   /kcal   :  -7.357586239 
 % E8         :  51.855303255 

-------------------------   ----------------
Dispersion correction           -0.022611108
-------------------------   ----------------


-------------------------   --------------------
FINAL SINGLE POINT ENERGY     -1715.482786925431
-------------------------   --------------------

                                *** OPTIMIZATION RUN DONE ***

                            ***************************************
                            *     ORCA property calculations      *
                            ***************************************

                                    ---------------------
                                    Active property flags
                                    ---------------------
   (+) Dipole Moment


------------------------------------------------------------------------------
                       ORCA ELECTRIC PROPERTIES CALCULATION
------------------------------------------------------------------------------

Dipole Moment Calculation                       ... on
Quadrupole Moment Calculation                   ... off
Polarizability Calculation                      ... off
GBWName                                         ... /burg/berkelbach/users/eav2136/projects/peroxide_dissociation/05_range_separated_functional/wb97x-d-peroxide-dmso/wb97x-d-peroxide-dmso_opt.gbw
Electron density                                ... /burg/berkelbach/users/eav2136/projects/peroxide_dissociation/05_range_separated_functional/wb97x-d-peroxide-dmso/wb97x-d-peroxide-dmso_opt.scfp
The origin for moment calculation is the CENTER OF MASS  = (-0.239576,  3.495472  5.643492)

-------------
DIPOLE MOMENT
-------------
                                X             Y             Z
Electronic contribution:     -0.43173      -8.58258     -14.57484
Nuclear contribution   :      1.12326       9.81130      18.02788
                        -----------------------------------------
Total Dipole Moment    :      0.69152       1.22873       3.45304
                        -----------------------------------------
Magnitude (a.u.)       :      3.72981
Magnitude (Debye)      :      9.48042



--------------------
Rotational spectrum 
--------------------
 
Rotational constants in cm-1:     0.012592     0.006353     0.004809 
Rotational constants in MHz :   377.508647   190.470231   144.162321 

 Dipole components along the rotational axes: 
x,y,z [a.u.] :     3.550350     0.988996    -0.573041 
x,y,z [Debye]:     9.024274     2.513829    -1.456555 

 

Timings for individual modules:

Sum of individual times         ...    15185.519 sec (= 253.092 min)
GTO integral calculation        ...       61.963 sec (=   1.033 min)   0.4 %
SCF iterations                  ...    11975.295 sec (= 199.588 min)  78.9 %
SCF Gradient evaluation         ...     3099.839 sec (=  51.664 min)  20.4 %
Geometry relaxation             ...       48.421 sec (=   0.807 min)   0.3 %
                             ****ORCA TERMINATED NORMALLY****
TOTAL RUN TIME: 0 days 4 hours 13 minutes 43 seconds 695 msec
