Job execution start: Fri Apr 22 10:37:08 EDT 2022
Shared library path: /cm/shared/apps/cuda11.0/toolkit/11.0.3/compat:/burg/berkelbach/users/eav2136/builds/orca/5.0.3/orca:/cm/shared/apps/ucx/1.8.1/lib64:/cm/local/apps/cuda/libs/current/lib64:/cm/shared/apps/cuda11.0/toolkit/11.0.3/targets/x86_64-linux/lib:/cm/shared/apps/cuda11.0/visual-tools/11.0.3/libnvvp:/burg/opt/openmpi-4.1.1_ucx_cuda_11.0.3_support/lib:/cm/shared/apps/slurm/current/lib64/slurm:/cm/shared/apps/slurm/current/lib64
Slurm Job ID is: 1844780
Slurm Job name is: dmf_peroxide_opt
g067

                                 *****************
                                 * O   R   C   A *
                                 *****************

                                            #,                                       
                                            ###                                      
                                            ####                                     
                                            #####                                    
                                            ######                                   
                                           ########,                                 
                                     ,,################,,,,,                         
                               ,,#################################,,                 
                          ,,##########################################,,             
                       ,#########################################, ''#####,          
                    ,#############################################,,   '####,        
                  ,##################################################,,,,####,       
                ,###########''''           ''''###############################       
              ,#####''   ,,,,##########,,,,          '''####'''          '####       
            ,##' ,,,,###########################,,,                        '##       
           ' ,,###''''                  '''############,,,                           
         ,,##''                                '''############,,,,        ,,,,,,###''
      ,#''                                            '''#######################'''  
     '                                                          ''''####''''         
             ,#######,   #######,   ,#######,      ##                                
            ,#'     '#,  ##    ##  ,#'     '#,    #''#        ######   ,####,        
            ##       ##  ##   ,#'  ##            #'  '#       #        #'  '#        
            ##       ##  #######   ##           ,######,      #####,   #    #        
            '#,     ,#'  ##    ##  '#,     ,#' ,#      #,         ##   #,  ,#        
             '#######'   ##     ##  '#######'  #'      '#     #####' # '####'        



                  #######################################################
                  #                        -***-                        #
                  #          Department of theory and spectroscopy      #
                  #    Directorship and core code : Frank Neese         #
                  #        Max Planck Institute fuer Kohlenforschung    #
                  #                Kaiser Wilhelm Platz 1               #
                  #                 D-45470 Muelheim/Ruhr               #
                  #                      Germany                        #
                  #                                                     #
                  #                  All rights reserved                #
                  #                        -***-                        #
                  #######################################################


                         Program Version 5.0.3 -  RELEASE  -


 With contributions from (in alphabetic order):
   Daniel Aravena         : Magnetic Suceptibility
   Michael Atanasov       : Ab Initio Ligand Field Theory (pilot matlab implementation)
   Alexander A. Auer      : GIAO ZORA, VPT2 properties, NMR spectrum
   Ute Becker             : Parallelization
   Giovanni Bistoni       : ED, misc. LED, open-shell LED, HFLD
   Martin Brehm           : Molecular dynamics
   Dmytro Bykov           : SCF Hessian
   Vijay G. Chilkuri      : MRCI spin determinant printing, contributions to CSF-ICE
   Dipayan Datta          : RHF DLPNO-CCSD density
   Achintya Kumar Dutta   : EOM-CC, STEOM-CC
   Dmitry Ganyushin       : Spin-Orbit,Spin-Spin,Magnetic field MRCI
   Miquel Garcia          : C-PCM and meta-GGA Hessian, CC/C-PCM, Gaussian charge scheme
   Yang Guo               : DLPNO-NEVPT2, F12-NEVPT2, CIM, IAO-localization
   Andreas Hansen         : Spin unrestricted coupled pair/coupled cluster methods
   Benjamin Helmich-Paris : MC-RPA, TRAH-SCF, COSX integrals
   Lee Huntington         : MR-EOM, pCC
   Robert Izsak           : Overlap fitted RIJCOSX, COSX-SCS-MP3, EOM
   Marcus Kettner         : VPT2
   Christian Kollmar      : KDIIS, OOCD, Brueckner-CCSD(T), CCSD density, CASPT2, CASPT2-K
   Simone Kossmann        : Meta GGA functionals, TD-DFT gradient, OOMP2, MP2 Hessian
   Martin Krupicka        : Initial AUTO-CI
   Lucas Lang             : DCDCAS
   Marvin Lechner         : AUTO-CI (C++ implementation), FIC-MRCC
   Dagmar Lenk            : GEPOL surface, SMD
   Dimitrios Liakos       : Extrapolation schemes; Compound Job, initial MDCI parallelization
   Dimitrios Manganas     : Further ROCIS development; embedding schemes
   Dimitrios Pantazis     : SARC Basis sets
   Anastasios Papadopoulos: AUTO-CI, single reference methods and gradients
   Taras Petrenko         : DFT Hessian,TD-DFT gradient, ASA, ECA, R-Raman, ABS, FL, XAS/XES, NRVS
   Peter Pinski           : DLPNO-MP2, DLPNO-MP2 Gradient
   Christoph Reimann      : Effective Core Potentials
   Marius Retegan         : Local ZFS, SOC
   Christoph Riplinger    : Optimizer, TS searches, QM/MM, DLPNO-CCSD(T), (RO)-DLPNO pert. Triples
   Tobias Risthaus        : Range-separated hybrids, TD-DFT gradient, RPA, STAB
   Michael Roemelt        : Original ROCIS implementation
   Masaaki Saitow         : Open-shell DLPNO-CCSD energy and density
   Barbara Sandhoefer     : DKH picture change effects
   Avijit Sen             : IP-ROCIS
   Kantharuban Sivalingam : CASSCF convergence, NEVPT2, FIC-MRCI
   Bernardo de Souza      : ESD, SOC TD-DFT
   Georgi Stoychev        : AutoAux, RI-MP2 NMR, DLPNO-MP2 response
   Willem Van den Heuvel  : Paramagnetic NMR
   Boris Wezisla          : Elementary symmetry handling
   Frank Wennmohs         : Technical directorship


 We gratefully acknowledge several colleagues who have allowed us to
 interface, adapt or use parts of their codes:
   Stefan Grimme, W. Hujo, H. Kruse, P. Pracht,  : VdW corrections, initial TS optimization,
                  C. Bannwarth, S. Ehlert          DFT functionals, gCP, sTDA/sTD-DF
   Ed Valeev, F. Pavosevic, A. Kumar             : LibInt (2-el integral package), F12 methods
   Garnet Chan, S. Sharma, J. Yang, R. Olivares  : DMRG
   Ulf Ekstrom                                   : XCFun DFT Library
   Mihaly Kallay                                 : mrcc  (arbitrary order and MRCC methods)
   Jiri Pittner, Ondrej Demel                    : Mk-CCSD
   Frank Weinhold                                : gennbo (NPA and NBO analysis)
   Christopher J. Cramer and Donald G. Truhlar   : smd solvation model
   Lars Goerigk                                  : TD-DFT with DH, B97 family of functionals
   V. Asgeirsson, H. Jonsson                     : NEB implementation
   FAccTs GmbH                                   : IRC, NEB, NEB-TS, DLPNO-Multilevel, CI-OPT
                                                   MM, QMMM, 2- and 3-layer-ONIOM, Crystal-QMMM,
                                                   LR-CPCM, SF, NACMEs, symmetry and pop. for TD-DFT,
                                                   nearIR, NL-DFT gradient (VV10), updates on ESD,
                                                   ML-optimized integration grids
   S Lehtola, MJT Oliveira, MAL Marques          : LibXC Library
   Liviu Ungur et al                             : ANISO software


 Your calculation uses the libint2 library for the computation of 2-el integrals
 For citations please refer to: http://libint.valeyev.net

 Your ORCA version has been built with support for libXC version: 5.1.0
 For citations please refer to: https://tddft.org/programs/libxc/

 This ORCA versions uses:
   CBLAS   interface :  Fast vector & matrix operations
   LAPACKE interface :  Fast linear algebra routines
   SCALAPACK package :  Parallel linear algebra routines
   Shared memory     :  Shared parallel matrices
   BLAS/LAPACK       :  OpenBLAS 0.3.15  USE64BITINT DYNAMIC_ARCH NO_AFFINITY SkylakeX SINGLE_THREADED
        Core in use  :  SkylakeX
   Copyright (c) 2011-2014, The OpenBLAS Project


Your calculation utilizes the atom-pairwise dispersion correction
with the Becke-Johnson damping scheme (D3BJ)
Cite in your paper:
S.Grimme, S.Ehrlich, L.Goerigk, J Comput Chem, (2011), 32, 1456–1465 
S.Grimme, J.Antony, S.Ehrlich and H.Krieg, J.Chem.Phys., 132, (2010), 154104 
   

Your calculation utilizes the SMD solvation module
Please cite in your paper:
A.V. Marenich, C.J. Cramer, D.G. Truhlar J. Phys. Chem. B, 113, (2009), 6378 

================================================================================

----- Orbital basis set information -----
Your calculation utilizes the basis: def2-TZVP
   F. Weigend and R. Ahlrichs, Phys. Chem. Chem. Phys. 7, 3297 (2005).

----- AuxJ basis set information -----
Your calculation utilizes the auxiliary basis: def2/J
   F. Weigend, Phys. Chem. Chem. Phys. 8, 1057 (2006).

================================================================================
                                        WARNINGS
                       Please study these warnings very carefully!
================================================================================


WARNING: Geometry Optimization
  ===> : Switching off AutoStart
         For restart on a previous wavefunction, please use MOREAD

INFO   : the flag for use of the SHARK integral package has been found!

================================================================================
                                       INPUT FILE
================================================================================
NAME = /burg/berkelbach/users/eav2136/projects/peroxide_dissociation/04_solvated_radical/dmf_peroxide/dmf_peroxide_opt.inp
|  1> ! UKS PBE0 def2-TZVP def2/J RIJCOSX D3BJ TIGHTSCF Opt CPCM PAL8
|  2> %maxcore 5000
|  3> %cpcm
|  4> smd true
|  5> SMDsolvent "DMF"
|  6> end
|  7> * xyz 0 1
|  8>  C -0.07425707479814 6.45007760366319 3.54636897867849
|  9>  S 1.48979584793712 6.08048225687873 2.75598260255209
| 10>  C 1.14936654141856 4.63662227087222 1.83369205968326
| 11>  C -0.09136557109480 4.00305286554088 1.79338352444578
| 12>  C -0.25826928718407 2.84269542505768 1.05936282240646
| 13>  C 0.80050967676942 2.30271389692801 0.33923873907232
| 14>  C 2.02875697338567 2.96040825022008 0.34201900047512
| 15>  C 2.20764771123846 4.10330343094754 1.09121055149825
| 16>  C 0.66254428710301 1.09941809961861 -0.50690159852297
| 17>  O 0.00000000000000 0.00000000000000 0.00000000000000
| 18>  O 1.06713866538631 0.98717129960580 -1.62357736506780
| 19>  O 0.00000000000000 0.00000000000000 1.41527284498687
| 20>  C -1.27388770944479 0.00000000000000 1.91590645535523
| 21>  C -1.22211457253867 0.06642777988277 3.38831477989974
| 22>  O -2.25742922897412 -0.02585779042736 1.23875652957256
| 23>  C -2.41543940252313 -0.12289611375011 4.08595252694906
| 24>  C -2.44195923478874 -0.03437680070658 5.45887710053507
| 25>  C -1.27275068522395 0.25496212808386 6.17298493884884
| 26>  C -0.08177795586127 0.45060655108151 5.47518008098465
| 27>  C -0.05890441770979 0.35440376081578 4.09544628781756
| 28>  S -1.42666733932306 0.34986111841343 7.90788531117200
| 29>  C 0.24316058065577 0.68495422113854 8.46194522255982
| 30>  H 0.10416325535368 7.34607684664392 4.14087383255362
| 31>  H -0.38882275224257 5.64387294862163 4.21002028523424
| 32>  H -0.85323854703301 6.66443357654391 2.81385647784552
| 33>  H -0.93700004363157 4.40513362395569 2.33421606140266
| 34>  H -1.23507439683237 2.37497021944690 1.02749021968162
| 35>  H 2.84544686618639 2.55882587909200 -0.24576673820719
| 36>  H 3.17295340310622 4.59670965109571 1.10248346369500
| 37>  H -3.31769085302541 -0.33900022625314 3.52707230389961
| 38>  H -3.37188538809726 -0.18808364875198 5.99464715790180
| 39>  H 0.83479761044422 0.68252071425859 5.99988733430662
| 40>  H 0.87046926144621 0.51883617942438 3.56602510045047
| 41>  H 0.18454114424639 0.73729393679500 9.54909076814075
| 42>  H 0.60864534290486 1.64029462399245 8.08374213903351
| 43>  H 0.92507514742305 -0.11949528816653 8.18458994466104
| 44> *
| 45> 
| 46>                          ****END OF INPUT****
================================================================================

                       *****************************
                       * Geometry Optimization Run *
                       *****************************

Geometry optimization settings:
Update method            Update   .... BFGS
Choice of coordinates    CoordSys .... Z-matrix Internals
Initial Hessian          InHess   .... Almoef's Model

Convergence Tolerances:
Energy Change            TolE     ....  5.0000e-06 Eh
Max. Gradient            TolMAXG  ....  3.0000e-04 Eh/bohr
RMS Gradient             TolRMSG  ....  1.0000e-04 Eh/bohr
Max. Displacement        TolMAXD  ....  4.0000e-03 bohr
RMS Displacement         TolRMSD  ....  2.0000e-03 bohr
Strict Convergence                ....  False
------------------------------------------------------------------------------
                        ORCA OPTIMIZATION COORDINATE SETUP
------------------------------------------------------------------------------

The optimization will be done in new redundant internal coordinates
Making redundant internal coordinates   ...  (new redundants) done
Evaluating the initial hessian          ...  (Almloef) done
Evaluating the coordinates              ...  done
Calculating the B-matrix                .... done
Calculating the G-matrix                .... done
Diagonalizing the G-matrix              .... done
Small eigenvalue found = 6.813e-04
Small eigenvalue found = 1.847e-03
Small eigenvalue found = 4.132e-03
Small eigenvalue found = 1.197e-02
Small eigenvalue found = 1.299e-02
Small eigenvalue found = 2.647e-02
The first mode is                       ....   64
The number of degrees of freedom        ....  102

    -----------------------------------------------------------------
                    Redundant Internal Coordinates


    -----------------------------------------------------------------
         Definition                    Initial Value    Approx d2E/dq
    -----------------------------------------------------------------
      1. B(S   1,C   0)                  1.7910         0.386175   
      2. B(C   2,S   1)                  1.7468         0.454240   
      3. B(C   3,C   2)                  1.3937         0.616320   
      4. B(C   4,C   3)                  1.3831         0.640745   
      5. B(C   5,C   4)                  1.3897         0.625563   
      6. B(C   6,C   5)                  1.3933         0.617369   
      7. B(C   7,C   2)                  1.3985         0.605696   
      8. B(C   7,C   6)                  1.3782         0.652421   
      9. B(C   8,C   5)                  1.4775         0.453096   
     10. B(O   9,C   8)                  1.3801         0.580356   
     11. B(O  10,C   8)                  1.1930         1.153901   
     12. B(O  11,O   9)                  1.4153         0.456763   
     13. B(C  12,O  11)                  1.3687         0.605075   
     14. B(C  13,C  12)                  1.4748         0.457532   
     15. B(O  14,C  12)                  1.1944         1.148067   
     16. B(C  15,C  13)                  1.3952         0.612988   
     17. B(C  16,C  15)                  1.3760         0.657696   
     18. B(C  17,C  16)                  1.4003         0.601695   
     19. B(C  18,C  17)                  1.3941         0.615367   
     20. B(C  19,C  18)                  1.3833         0.640430   
     21. B(C  19,C  13)                  1.3914         0.621567   
     22. B(S  20,C  17)                  1.7443         0.458402   
     23. B(C  21,S  20)                  1.7910         0.386167   
     24. B(H  22,C   0)                  1.0900         0.360109   
     25. B(H  23,C   0)                  1.0906         0.359342   
     26. B(H  24,C   0)                  1.0906         0.359351   
     27. B(H  25,C   3)                  1.0813         0.371759   
     28. B(H  26,C   4)                  1.0835         0.368828   
     29. B(H  27,C   6)                  1.0834         0.368946   
     30. B(H  28,C   7)                  1.0842         0.367916   
     31. B(H  29,C  15)                  1.0831         0.369344   
     32. B(H  30,C  16)                  1.0842         0.367887   
     33. B(H  31,C  18)                  1.0813         0.371793   
     34. B(H  32,C  19)                  1.0822         0.370628   
     35. B(H  33,C  21)                  1.0900         0.360124   
     36. B(H  34,C  21)                  1.0905         0.359378   
     37. B(H  35,C  21)                  1.0904         0.359511   
     38. A(H  22,C   0,H  23)          108.8436         0.290744   
     39. A(H  22,C   0,H  24)          108.7656         0.290746   
     40. A(S   1,C   0,H  24)          111.5879         0.342618   
     41. A(S   1,C   0,H  23)          111.5859         0.342616   
     42. A(H  23,C   0,H  24)          110.3658         0.290648   
     43. A(S   1,C   0,H  22)          105.5091         0.342738   
     44. A(C   0,S   1,C   2)          103.4970         0.419917   
     45. A(C   3,C   2,C   7)          119.0102         0.431786   
     46. A(S   1,C   2,C   3)          124.3692         0.432719   
     47. A(S   1,C   2,C   7)          116.6202         0.431369   
     48. A(C   2,C   3,C   4)          120.2744         0.436178   
     49. A(C   4,C   3,H  25)          118.8821         0.356807   
     50. A(C   2,C   3,H  25)          120.8433         0.354461   
     51. A(C   5,C   4,H  26)          120.2581         0.354880   
     52. A(C   3,C   4,H  26)          119.1145         0.356327   
     53. A(C   3,C   4,C   5)          120.6005         0.437350   
     54. A(C   4,C   5,C   6)          119.1567         0.434432   
     55. A(C   4,C   5,C   8)          122.8259         0.411072   
     56. A(C   6,C   5,C   8)          117.8994         0.410112   
     57. A(C   7,C   6,H  27)          120.2952         0.357442   
     58. A(C   5,C   6,H  27)          119.2412         0.354107   
     59. A(C   5,C   6,C   7)          120.4618         0.437734   
     60. A(C   6,C   7,H  28)          119.9087         0.357272   
     61. A(C   2,C   7,H  28)          119.6508         0.352797   
     62. A(C   2,C   7,C   6)          120.4398         0.436231   
     63. A(O   9,C   8,O  10)          115.5727         0.473849   
     64. A(C   5,C   8,O  10)          125.5219         0.455899   
     65. A(C   5,C   8,O   9)          118.8999         0.403044   
     66. A(C   8,O   9,O  11)          111.5490         0.398410   
     67. A(O   9,O  11,C  12)          111.4547         0.401345   
     68. A(C  13,C  12,O  14)          126.5770         0.456288   
     69. A(O  11,C  12,O  14)          123.9896         0.477054   
     70. A(O  11,C  12,C  13)          109.4203         0.406723   
     71. A(C  12,C  13,C  19)          123.0966         0.411315   
     72. A(C  15,C  13,C  19)          119.2748         0.433376   
     73. A(C  12,C  13,C  15)          117.5858         0.410303   
     74. A(C  16,C  15,H  29)          120.7715         0.357997   
     75. A(C  13,C  15,H  29)          118.7871         0.353745   
     76. A(C  13,C  15,C  16)          120.4413         0.437808   
     77. A(C  17,C  16,H  30)          119.5691         0.352397   
     78. A(C  15,C  16,H  30)          120.0309         0.357757   
     79. A(C  15,C  16,C  17)          120.3999         0.436343   
     80. A(C  16,C  17,S  20)          116.4104         0.431562   
     81. A(C  18,C  17,S  20)          124.4423         0.433309   
     82. A(C  16,C  17,C  18)          119.1469         0.431152   
     83. A(C  17,C  18,C  19)          120.2393         0.436018   
     84. A(C  19,C  18,H  31)          119.0068         0.356782   
     85. A(C  17,C  18,H  31)          120.7535         0.354374   
     86. A(C  13,C  19,C  18)          120.4962         0.436806   
     87. A(C  18,C  19,H  32)          119.4465         0.356592   
     88. A(C  13,C  19,H  32)          120.0518         0.354788   
     89. A(C  17,S  20,C  21)          103.6272         0.420599   
     90. A(H  34,C  21,H  35)          110.3939         0.290673   
     91. A(H  33,C  21,H  35)          108.8290         0.290768   
     92. A(S  20,C  21,H  35)          111.4899         0.342642   
     93. A(H  33,C  21,H  34)          108.7753         0.290751   
     94. A(S  20,C  21,H  34)          111.6593         0.342620   
     95. A(S  20,C  21,H  33)          105.5095         0.342739   
     96. D(C   2,S   1,C   0,H  22)    179.5234         0.003898   
     97. D(C   2,S   1,C   0,H  23)     61.4721         0.003898   
     98. D(C   2,S   1,C   0,H  24)    -62.5176         0.003898   
     99. D(C   3,C   2,S   1,C   0)      0.0768         0.004531   
    100. D(C   7,C   2,S   1,C   0)    179.8441         0.004531   
    101. D(C   4,C   3,C   2,C   7)      1.8479         0.026266   
    102. D(C   4,C   3,C   2,S   1)   -178.3900         0.026266   
    103. D(H  25,C   3,C   2,C   7)   -178.3097         0.026266   
    104. D(H  25,C   3,C   2,S   1)      1.4524         0.026266   
    105. D(H  26,C   4,C   3,H  25)      1.1825         0.028529   
    106. D(H  26,C   4,C   3,C   2)   -178.9720         0.028529   
    107. D(C   5,C   4,C   3,H  25)    179.3028         0.028529   
    108. D(C   5,C   4,C   3,C   2)     -0.8517         0.028529   
    109. D(C   6,C   5,C   4,H  26)    176.7603         0.027109   
    110. D(C   6,C   5,C   4,C   3)     -1.3385         0.027109   
    111. D(C   8,C   5,C   4,C   3)   -177.3042         0.027109   
    112. D(C   8,C   5,C   4,H  26)      0.7946         0.027109   
    113. D(H  27,C   6,C   5,C   8)     -1.7852         0.026361   
    114. D(H  27,C   6,C   5,C   4)   -177.9495         0.026361   
    115. D(C   7,C   6,C   5,C   8)    178.6982         0.026361   
    116. D(C   7,C   6,C   5,C   4)      2.5338         0.026361   
    117. D(H  28,C   7,C   6,H  27)     -0.7379         0.029652   
    118. D(H  28,C   7,C   6,C   5)    178.7736         0.029652   
    119. D(C   2,C   7,C   6,H  27)    178.9472         0.029652   
    120. D(C   2,C   7,C   6,C   5)     -1.5413         0.029652   
    121. D(H  28,C   7,C   2,C   3)    179.0287         0.025317   
    122. D(H  28,C   7,C   2,S   1)     -0.7516         0.025317   
    123. D(C   6,C   7,C   2,C   3)     -0.6572         0.025317   
    124. D(C   6,C   7,C   2,S   1)    179.5625         0.025317   
    125. D(O   9,C   8,C   5,C   6)    137.7156         0.013991   
    126. D(O   9,C   8,C   5,C   4)    -46.2708         0.013991   
    127. D(O  10,C   8,C   5,C   6)    -43.1749         0.013991   
    128. D(O  10,C   8,C   5,C   4)    132.8388         0.013991   
    129. D(O  11,O   9,C   8,O  10)    157.9229         0.024498   
    130. D(O  11,O   9,C   8,C   5)    -22.8806         0.024498   
    131. D(C  12,O  11,O   9,C   8)    121.0745         0.015467   
    132. D(O  14,C  12,O  11,O   9)      1.4962         0.026770   
    133. D(C  13,C  12,O  11,O   9)   -177.2626         0.026770   
    134. D(C  19,C  13,C  12,O  14)   -167.0428         0.014262   
    135. D(C  19,C  13,C  12,O  11)     11.6757         0.014262   
    136. D(C  15,C  13,C  12,O  14)     10.5550         0.014262   
    137. D(C  15,C  13,C  12,O  11)   -170.7265         0.014262   
    138. D(H  29,C  15,C  13,C  19)    179.5255         0.025966   
    139. D(H  29,C  15,C  13,C  12)      1.8326         0.025966   
    140. D(C  16,C  15,C  13,C  19)     -0.4006         0.025966   
    141. D(C  16,C  15,C  13,C  12)   -178.0935         0.025966   
    142. D(H  30,C  16,C  15,H  29)      0.4119         0.030169   
    143. D(H  30,C  16,C  15,C  13)   -179.6635         0.030169   
    144. D(C  17,C  16,C  15,H  29)   -179.5362         0.030169   
    145. D(C  17,C  16,C  15,C  13)      0.3884         0.030169   
    146. D(S  20,C  17,C  16,H  30)     -0.2280         0.024966   
    147. D(S  20,C  17,C  16,C  15)    179.7203         0.024966   
    148. D(C  18,C  17,C  16,H  30)    179.9814         0.024966   
    149. D(C  18,C  17,C  16,C  15)     -0.0703         0.024966   
    150. D(H  31,C  18,C  17,S  20)     -0.2266         0.026180   
    151. D(H  31,C  18,C  17,C  16)    179.5460         0.026180   
    152. D(C  19,C  18,C  17,S  20)    179.9944         0.026180   
    153. D(C  19,C  18,C  17,C  16)     -0.2330         0.026180   
    154. D(C  13,C  19,C  18,C  17)      0.2195         0.028499   
    155. D(H  32,C  19,C  13,C  15)   -179.0463         0.026742   
    156. D(H  32,C  19,C  13,C  12)     -1.4873         0.026742   
    157. D(C  18,C  19,C  13,C  15)      0.0962         0.026742   
    158. D(C  18,C  19,C  13,C  12)    177.6553         0.026742   
    159. D(H  32,C  19,C  18,H  31)     -0.4157         0.028499   
    160. D(H  32,C  19,C  18,C  17)    179.3672         0.028499   
    161. D(C  13,C  19,C  18,H  31)   -179.5634         0.028499   
    162. D(C  21,S  20,C  17,C  18)     -1.6462         0.004589   
    163. D(C  21,S  20,C  17,C  16)    178.5756         0.004589   
    164. D(H  35,C  21,S  20,C  17)    -61.2749         0.003898   
    165. D(H  34,C  21,S  20,C  17)     62.7331         0.003898   
    166. D(H  33,C  21,S  20,C  17)   -179.2586         0.003898   
    -----------------------------------------------------------------

Number of atoms                         .... 36
Number of degrees of freedom            .... 166

         *************************************************************
         *                GEOMETRY OPTIMIZATION CYCLE   1            *
         *************************************************************
---------------------------------
CARTESIAN COORDINATES (ANGSTROEM)
---------------------------------
  C     -0.074257    6.450078    3.546369
  S      1.489796    6.080482    2.755983
  C      1.149367    4.636622    1.833692
  C     -0.091366    4.003053    1.793384
  C     -0.258269    2.842695    1.059363
  C      0.800510    2.302714    0.339239
  C      2.028757    2.960408    0.342019
  C      2.207648    4.103303    1.091211
  C      0.662544    1.099418   -0.506902
  O      0.000000    0.000000    0.000000
  O      1.067139    0.987171   -1.623577
  O      0.000000    0.000000    1.415273
  C     -1.273888    0.000000    1.915906
  C     -1.222115    0.066428    3.388315
  O     -2.257429   -0.025858    1.238757
  C     -2.415439   -0.122896    4.085953
  C     -2.441959   -0.034377    5.458877
  C     -1.272751    0.254962    6.172985
  C     -0.081778    0.450607    5.475180
  C     -0.058904    0.354404    4.095446
  S     -1.426667    0.349861    7.907885
  C      0.243161    0.684954    8.461945
  H      0.104163    7.346077    4.140874
  H     -0.388823    5.643873    4.210020
  H     -0.853239    6.664434    2.813856
  H     -0.937000    4.405134    2.334216
  H     -1.235074    2.374970    1.027490
  H      2.845447    2.558826   -0.245767
  H      3.172953    4.596710    1.102483
  H     -3.317691   -0.339000    3.527072
  H     -3.371885   -0.188084    5.994647
  H      0.834798    0.682521    5.999887
  H      0.870469    0.518836    3.566025
  H      0.184541    0.737294    9.549091
  H      0.608645    1.640295    8.083742
  H      0.925075   -0.119495    8.184590

----------------------------
CARTESIAN COORDINATES (A.U.)
----------------------------
  NO LB      ZA    FRAG     MASS         X           Y           Z
   0 C     6.0000    0    12.011   -0.140326   12.188880    6.701666
   1 S    16.0000    0    32.060    2.815306   11.490446    5.208052
   2 C     6.0000    0    12.011    2.171988    8.761946    3.465176
   3 C     6.0000    0    12.011   -0.172656    7.564674    3.389004
   4 C     6.0000    0    12.011   -0.488058    5.371916    2.001906
   5 C     6.0000    0    12.011    1.512744    4.351499    0.641068
   6 C     6.0000    0    12.011    3.833795    5.594361    0.646322
   7 C     6.0000    0    12.011    4.171850    7.754120    2.062089
   8 C     6.0000    0    12.011    1.252027    2.077599   -0.957905
   9 O     8.0000    0    15.999    0.000000    0.000000    0.000000
  10 O     8.0000    0    15.999    2.016600    1.865483   -3.068117
  11 O     8.0000    0    15.999    0.000000    0.000000    2.674478
  12 C     6.0000    0    12.011   -2.407299    0.000000    3.620538
  13 C     6.0000    0    12.011   -2.309462    0.125530    6.402987
  14 O     8.0000    0    15.999   -4.265923   -0.048864    2.340911
  15 C     6.0000    0    12.011   -4.564519   -0.232240    7.721331
  16 C     6.0000    0    12.011   -4.614634   -0.064963   10.315783
  17 C     6.0000    0    12.011   -2.405150    0.481809   11.665251
  18 C     6.0000    0    12.011   -0.154538    0.851523   10.346591
  19 C     6.0000    0    12.011   -0.111313    0.669726    7.739272
  20 S    16.0000    0    32.060   -2.696011    0.661142   14.943738
  21 C     6.0000    0    12.011    0.459507    1.294376   15.990759
  22 H     1.0000    0     1.008    0.196840   13.882073    7.825117
  23 H     1.0000    0     1.008   -0.734769   10.665374    7.955785
  24 H     1.0000    0     1.008   -1.612387   12.593954    5.317418
  25 H     1.0000    0     1.008   -1.770673    8.324496    4.411029
  26 H     1.0000    0     1.008   -2.333952    4.488043    1.941675
  27 H     1.0000    0     1.008    5.377115    4.835480   -0.464432
  28 H     1.0000    0     1.008    5.996013    8.686522    2.083392
  29 H     1.0000    0     1.008   -6.269527   -0.640618    6.665201
  30 H     1.0000    0     1.008   -6.371940   -0.355427   11.328241
  31 H     1.0000    0     1.008    1.577539    1.289777   11.338144
  32 H     1.0000    0     1.008    1.644949    0.980458    6.738811
  33 H     1.0000    0     1.008    0.348732    1.393284   18.045166
  34 H     1.0000    0     1.008    1.150173    3.099708   15.276059
  35 H     1.0000    0     1.008    1.748139   -0.225813   15.466634

--------------------------------
INTERNAL COORDINATES (ANGSTROEM)
--------------------------------
 C      0   0   0     0.000000000000     0.00000000     0.00000000
 S      1   0   0     1.790969818017     0.00000000     0.00000000
 C      2   1   0     1.746780929995   103.49703222     0.00000000
 C      3   2   1     1.393718459520   124.36918170     0.07682297
 C      4   3   2     1.383138688329   120.27439762   181.60997218
 C      5   4   3     1.389666017657   120.60050203   359.14829865
 C      6   5   4     1.393255545064   119.15672375   358.66151732
 C      7   6   5     1.378223229504   120.46180539     2.53383799
 C      6   5   4     1.477466986255   122.82593719   182.69580816
 O      9   6   5     1.380084896203   118.89987975   313.72924568
 O      9   6   5     1.193004913083   125.52191253   132.83876530
 O     10   9   6     1.415272844987   111.54903739   337.11941713
 C     12  10   9     1.368730765383   111.45466078   121.07450275
 C     13  12  10     1.474815033092   109.42032141   182.73741157
 O     13  12  10     1.194384598005   123.98959865     1.49620750
 C     14  13  12     1.395193933712   117.58575536   189.27346256
 C     16  14  13     1.376030833609   120.44129595   181.90648253
 C     17  16  14     1.400255566970   120.39992501     0.38844050
 C     18  17  16     1.394139305089   119.14686446   359.92970699
 C     19  18  17     1.383272755320   120.23932774   359.76697987
 S     18  17  16     1.744297983907   116.41043178   179.72028820
 C     21  18  17     1.790976006328   103.62720090   178.57561880
 H      1   2   3     1.089992880213   105.50910599   179.52342869
 H      1   2   3     1.090573504139   111.58592171    61.47211732
 H      1   2   3     1.090566449636   111.58785041   297.48242808
 H      4   3   2     1.081326236832   120.84329981     1.45240478
 H      5   4   3     1.083480942612   119.11451180   181.02803207
 H      7   6   5     1.083394137146   119.24119758   182.05045369
 H      8   7   6     1.084154903776   119.90872766   178.77361985
 H     16  14  13     1.083100074365   118.78711222     1.83264212
 H     17  16  14     1.084176184997   120.03093279   180.33653865
 H     19  18  17     1.081301368500   120.75351253   179.54600540
 H     20  19  18     1.082155372130   119.44648422   179.36717552
 H     22  21  18     1.089982165651   105.50954915   180.74135630
 H     22  21  18     1.090546637769   111.65925285    62.73308778
 H     22  21  18     1.090445981958   111.48990618   298.72507539

---------------------------
INTERNAL COORDINATES (A.U.)
---------------------------
 C      0   0   0     0.000000000000     0.00000000     0.00000000
 S      1   0   0     3.384442470171     0.00000000     0.00000000
 C      2   1   0     3.300937573646   103.49703222     0.00000000
 C      3   2   1     2.633746196283   124.36918170     0.07682297
 C      4   3   2     2.613753326172   120.27439762   181.60997218
 C      5   4   3     2.626088190988   120.60050203   359.14829865
 C      6   5   4     2.632871414738   119.15672375   358.66151732
 C      7   6   5     2.604464455171   120.46180539     2.53383799
 C      6   5   4     2.792007975932   122.82593719   182.69580816
 O      9   6   5     2.607982495384   118.89987975   313.72924568
 O      9   6   5     2.254452562149   125.52191253   132.83876530
 O     10   9   6     2.674478081801   111.54903739   337.11941713
 C     12  10   9     2.586526297646   111.45466078   121.07450275
 C     13  12  10     2.786996510733   109.42032141   182.73741157
 O     13  12  10     2.257059788803   123.98959865     1.49620750
 C     14  13  12     2.636534438423   117.58575536   189.27346256
 C     16  14  13     2.600321427352   120.44129595   181.90648253
 C     17  16  14     2.646099539072   120.39992501     0.38844050
 C     18  17  16     2.634541479154   119.14686446   359.92970699
 C     19  18  17     2.614006676069   120.23932774   359.76697987
 S     18  17  16     3.296245485535   116.41043178   179.72028820
 C     21  18  17     3.384454164384   103.62720090   178.57561880
 H      1   2   3     2.059788031526   105.50910599   179.52342869
 H      1   2   3     2.060885251733   111.58592171    61.47211732
 H      1   2   3     2.060871920655   111.58785041   297.48242808
 H      4   3   2     2.043410449036   120.84329981     1.45240478
 H      5   4   3     2.047482252859   119.11451180   181.02803207
 H      7   6   5     2.047318214302   119.24119758   182.05045369
 H      8   7   6     2.048755854885   119.90872766   178.77361985
 H     16  14  13     2.046762516180   118.78711222     1.83264212
 H     17  16  14     2.048796070563   120.03093279   180.33653865
 H     19  18  17     2.043363454698   120.75351253   179.54600540
 H     20  19  18     2.044977287678   119.44648422   179.36717552
 H     22  21  18     2.059767783938   105.50954915   180.74135630
 H     22  21  18     2.060834481653   111.65925285    62.73308778
 H     22  21  18     2.060644269736   111.48990618   298.72507539

---------------------
BASIS SET INFORMATION
---------------------
There are 4 groups of distinct atoms

 Group   1 Type C   : 11s6p2d1f contracted to 5s3p2d1f pattern {62111/411/11/1}
 Group   2 Type S   : 14s9p3d1f contracted to 5s5p2d1f pattern {73211/51111/21/1}
 Group   3 Type O   : 11s6p2d1f contracted to 5s3p2d1f pattern {62111/411/11/1}
 Group   4 Type H   : 5s1p contracted to 3s1p pattern {311/1}

Atom   0C    basis set group =>   1
Atom   1S    basis set group =>   2
Atom   2C    basis set group =>   1
Atom   3C    basis set group =>   1
Atom   4C    basis set group =>   1
Atom   5C    basis set group =>   1
Atom   6C    basis set group =>   1
Atom   7C    basis set group =>   1
Atom   8C    basis set group =>   1
Atom   9O    basis set group =>   3
Atom  10O    basis set group =>   3
Atom  11O    basis set group =>   3
Atom  12C    basis set group =>   1
Atom  13C    basis set group =>   1
Atom  14O    basis set group =>   3
Atom  15C    basis set group =>   1
Atom  16C    basis set group =>   1
Atom  17C    basis set group =>   1
Atom  18C    basis set group =>   1
Atom  19C    basis set group =>   1
Atom  20S    basis set group =>   2
Atom  21C    basis set group =>   1
Atom  22H    basis set group =>   4
Atom  23H    basis set group =>   4
Atom  24H    basis set group =>   4
Atom  25H    basis set group =>   4
Atom  26H    basis set group =>   4
Atom  27H    basis set group =>   4
Atom  28H    basis set group =>   4
Atom  29H    basis set group =>   4
Atom  30H    basis set group =>   4
Atom  31H    basis set group =>   4
Atom  32H    basis set group =>   4
Atom  33H    basis set group =>   4
Atom  34H    basis set group =>   4
Atom  35H    basis set group =>   4
---------------------------------
AUXILIARY/J BASIS SET INFORMATION
---------------------------------
There are 4 groups of distinct atoms

 Group   1 Type C   : 12s5p4d2f1g contracted to 6s4p3d1f1g pattern {711111/2111/211/2/1}
 Group   2 Type S   : 14s5p5d2f1g contracted to 8s4p3d1f1g pattern {71111111/2111/311/2/1}
 Group   3 Type O   : 12s5p4d2f1g contracted to 6s4p3d1f1g pattern {711111/2111/211/2/1}
 Group   4 Type H   : 5s2p1d contracted to 3s1p1d pattern {311/2/1}

Atom   0C    basis set group =>   1
Atom   1S    basis set group =>   2
Atom   2C    basis set group =>   1
Atom   3C    basis set group =>   1
Atom   4C    basis set group =>   1
Atom   5C    basis set group =>   1
Atom   6C    basis set group =>   1
Atom   7C    basis set group =>   1
Atom   8C    basis set group =>   1
Atom   9O    basis set group =>   3
Atom  10O    basis set group =>   3
Atom  11O    basis set group =>   3
Atom  12C    basis set group =>   1
Atom  13C    basis set group =>   1
Atom  14O    basis set group =>   3
Atom  15C    basis set group =>   1
Atom  16C    basis set group =>   1
Atom  17C    basis set group =>   1
Atom  18C    basis set group =>   1
Atom  19C    basis set group =>   1
Atom  20S    basis set group =>   2
Atom  21C    basis set group =>   1
Atom  22H    basis set group =>   4
Atom  23H    basis set group =>   4
Atom  24H    basis set group =>   4
Atom  25H    basis set group =>   4
Atom  26H    basis set group =>   4
Atom  27H    basis set group =>   4
Atom  28H    basis set group =>   4
Atom  29H    basis set group =>   4
Atom  30H    basis set group =>   4
Atom  31H    basis set group =>   4
Atom  32H    basis set group =>   4
Atom  33H    basis set group =>   4
Atom  34H    basis set group =>   4
Atom  35H    basis set group =>   4


           ************************************************************
           *        Program running with 8 parallel MPI-processes     *
           *              working on a common directory               *
           ************************************************************
------------------------------------------------------------------------------
                           ORCA GTO INTEGRAL CALCULATION
                           -- RI-GTO INTEGRALS CHOSEN --
------------------------------------------------------------------------------
------------------------------------------------------------------------------
                   ___                                                        
                  /   \      - P O W E R E D   B Y -                         
                 /     \                                                     
                 |  |  |   _    _      __       _____    __    __             
                 |  |  |  | |  | |    /  \     |  _  \  |  |  /  |          
                  \  \/   | |  | |   /    \    | | | |  |  | /  /          
                 / \  \   | |__| |  /  /\  \   | |_| |  |  |/  /          
                |  |  |   |  __  | /  /__\  \  |    /   |      \           
                |  |  |   | |  | | |   __   |  |    \   |  |\   \          
                \     /   | |  | | |  |  |  |  | |\  \  |  | \   \       
                 \___/    |_|  |_| |__|  |__|  |_| \__\ |__|  \__/        
                                                                              
                      - O R C A' S   B I G   F R I E N D -                    
                                      &                                       
                       - I N T E G R A L  F E E D E R -                       
                                                                              
 v1 FN, 2020, v2 2021                                                         
------------------------------------------------------------------------------


Reading SHARK input file /burg/berkelbach/users/eav2136/projects/peroxide_dissociation/04_solvated_radical/dmf_peroxide/dmf_peroxide_opt.SHARKINP.tmp ... ok
----------------------
SHARK INTEGRAL PACKAGE
----------------------

Number of atoms                             ...     36
Number of basis functions                   ...    778
Number of shells                            ...    302
Maximum angular momentum                    ...      3
Integral batch strategy                     ... SHARK/LIBINT Hybrid
RI-J (if used) integral strategy            ... SPLIT-RIJ (Revised 2003 algorithm where possible)
Printlevel                                  ...      1
Contraction scheme used                     ... SEGMENTED contraction
Coulomb Range Separation                    ... NOT USED
Exchange Range Separation                   ... NOT USED
Finite Nucleus Model                        ... NOT USED
Auxiliary Coulomb fitting basis             ... AVAILABLE
   # of basis functions in Aux-J            ...   1236
   # of shells in Aux-J                     ...    404
   Maximum angular momentum in Aux-J        ...      4
Auxiliary J/K fitting basis                 ... NOT available
Auxiliary Correlation fitting basis         ... NOT available
Auxiliary 'external' fitting basis          ... NOT available
Integral threshold                          ...     2.500000e-11
Primitive cut-off                           ...     2.500000e-12
Primitive pair pre-selection threshold      ...     2.500000e-12

Calculating pre-screening integrals         ... done (  0.1 sec) Dimension = 302
Organizing shell pair data                  ... done (  0.4 sec)
Shell pair information
Total number of shell pairs                 ...     45753
Shell pairs after pre-screening             ...     30707
Total number of primitive shell pairs       ...    145545
Primitive shell pairs kept                  ...     63502
          la=0 lb=0:   7523 shell pairs
          la=1 lb=0:   8937 shell pairs
          la=1 lb=1:   2674 shell pairs
          la=2 lb=0:   4331 shell pairs
          la=2 lb=1:   2602 shell pairs
          la=2 lb=2:    662 shell pairs
          la=3 lb=0:   2019 shell pairs
          la=3 lb=1:   1229 shell pairs
          la=3 lb=2:    589 shell pairs
          la=3 lb=3:    141 shell pairs

Calculating one electron integrals          ... done (  1.8 sec)
Calculating RI/J V-Matrix + Cholesky decomp.... done (  1.3 sec)
Calculating Nuclear repulsion               ... done (  0.0 sec) ENN=   1970.142246923818 Eh

SHARK setup successfully completed in   7.6 seconds

Maximum memory used throughout the entire GTOINT-calculation: 49.0 MB


           ************************************************************
           *        Program running with 8 parallel MPI-processes     *
           *              working on a common directory               *
           ************************************************************
-------------------------------------------------------------------------------
                                 ORCA SCF
-------------------------------------------------------------------------------

------------
SCF SETTINGS
------------
Hamiltonian:
 Density Functional     Method          .... DFT(GTOs)
 Exchange Functional    Exchange        .... PBE
   PBE kappa parameter   XKappa         ....  0.804000
   PBE mue parameter    XMuePBE         ....  0.219520
 Correlation Functional Correlation     .... PBE
   PBE beta parameter  CBetaPBE         ....  0.066725
 LDA part of GGA corr.  LDAOpt          .... PW91-LDA
 Gradients option       PostSCFGGA      .... off
 Hybrid DFT is turned on
   Fraction HF Exchange ScalHFX         ....  0.250000
   Scaling of DF-GGA-X  ScalDFX         ....  0.750000
   Scaling of DF-GGA-C  ScalDFC         ....  1.000000
   Scaling of DF-LDA-C  ScalLDAC        ....  1.000000
   Perturbative correction              ....  0.000000
   Density functional embedding theory  .... OFF
   NL short-range parameter             ....  6.900000
 RI-approximation to the Coulomb term is turned on
   Number of AuxJ basis functions       .... 1236
   RIJ-COSX (HFX calculated with COS-X)).... on


General Settings:
 Integral files         IntName         .... /burg/berkelbach/users/eav2136/projects/peroxide_dissociation/04_solvated_radical/dmf_peroxide/dmf_peroxide_opt
 Hartree-Fock type      HFTyp           .... UHF
 Total Charge           Charge          ....    0
 Multiplicity           Mult            ....    1
 Number of Electrons    NEL             ....  174
 Basis Dimension        Dim             ....  778
 Nuclear Repulsion      ENuc            ....   1970.1422469238 Eh

Convergence Acceleration:
 DIIS                   CNVDIIS         .... on
   Start iteration      DIISMaxIt       ....    12
   Startup error        DIISStart       ....  0.200000
   # of expansion vecs  DIISMaxEq       ....     5
   Bias factor          DIISBfac        ....   1.050
   Max. coefficient     DIISMaxC        ....  10.000
 Trust-Rad. Augm. Hess. CNVTRAH         .... auto
   Auto Start mean grad. ratio tolernc. ....  1.125000
   Auto Start start iteration           ....    20
   Auto Start num. interpolation iter.  ....    10
   Max. Number of Micro iterations      ....    16
   Max. Number of Macro iterations      .... Maxiter - #DIIS iter
   Number of Davidson start vectors     ....     2
   Converg. threshold I  (grad. norm)   ....   1.000e-05
   Converg. threshold II (energy diff.) ....   1.000e-08
   Grad. Scal. Fac. for Micro threshold ....   0.100
   Minimum threshold for Micro iter.    ....   0.010
   NR start threshold (gradient norm)   ....   0.001
   Initial trust radius                 ....   0.400
   Minimum AH scaling param. (alpha)    ....   1.000
   Maximum AH scaling param. (alpha)    .... 1000.000
   Orbital update algorithm             .... Taylor
   White noise on init. David. guess    .... on
   Maximum white noise                  ....   0.010
   Quad. conv. algorithm                .... NR
 SOSCF                  CNVSOSCF        .... off
 Level Shifting         CNVShift        .... on
   Level shift para.    LevelShift      ....    0.2500
   Turn off err/grad.   ShiftErr        ....    0.0010
 Zerner damping         CNVZerner       .... off
 Static damping         CNVDamp         .... on
   Fraction old density DampFac         ....    0.7000
   Max. Damping (<1)    DampMax         ....    0.9800
   Min. Damping (>=0)   DampMin         ....    0.0000
   Turn off err/grad.   DampErr         ....    0.1000
 Fernandez-Rico         CNVRico         .... off

SCF Procedure:
 Maximum # iterations   MaxIter         ....   125
 SCF integral mode      SCFMode         .... Direct
   Integral package                     .... SHARK and LIBINT hybrid scheme
 Reset frequency        DirectResetFreq ....    20
 Integral Threshold     Thresh          ....  2.500e-11 Eh
 Primitive CutOff       TCut            ....  2.500e-12 Eh

Convergence Tolerance:
 Convergence Check Mode ConvCheckMode   .... Total+1el-Energy
 Convergence forced     ConvForced      .... 0
 Energy Change          TolE            ....  1.000e-08 Eh
 1-El. energy change                    ....  1.000e-05 Eh
 DIIS Error             TolErr          ....  5.000e-07


Diagonalization of the overlap matrix:
Smallest eigenvalue                        ... 6.410e-06
Time for diagonalization                   ...    0.114 sec
Threshold for overlap eigenvalues          ... 1.000e-08
Number of eigenvalues below threshold      ... 0
Time for construction of square roots      ...    0.284 sec
Total time needed                          ...    0.401 sec

Time for model grid setup =    1.323 sec

------------------------------
INITIAL GUESS: MODEL POTENTIAL
------------------------------
Loading Hartree-Fock densities                     ... done
Calculating cut-offs                               ... done
Initializing the effective Hamiltonian             ... done
Setting up the integral package (SHARK)            ... done
Starting the Coulomb interaction                   ... done (   1.9 sec)
Reading the grid                                   ... done
Mapping shells                                     ... done
Starting the XC term evaluation                    ... done (   0.5 sec)
  promolecular density results
     # of electrons  =    174.001529421
     EX              =   -168.410428734
     EC              =     -6.029879073
     EX+EC           =   -174.440307808
Transforming the Hamiltonian                       ... done (   0.1 sec)
Diagonalizing the Hamiltonian                      ... done (   0.1 sec)
Back transforming the eigenvectors                 ... done (   0.0 sec)
Now organizing SCF variables                       ... done
                      ------------------
                      INITIAL GUESS DONE (   4.0 sec)
                      ------------------
-------------------
DFT GRID GENERATION
-------------------

General Integration Accuracy     IntAcc      ... 4.388
Radial Grid Type                 RadialGrid  ... OptM3 with GC (2021)
Angular Grid (max. ang.)         AngularGrid ... 4 (Lebedev-302)
Angular grid pruning method      GridPruning ... 4 (adaptive)
Weight generation scheme         WeightScheme... Becke
Basis function cutoff            BFCut       ... 1.0000e-11
Integration weight cutoff        WCut        ... 1.0000e-14
Angular grids for H and He will be reduced by one unit
Partially contracted basis set               ... off
Rotationally invariant grid construction     ... off

Total number of grid points                  ...   179155
Total number of batches                      ...     2817
Average number of points per batch           ...       63
Average number of grid points per atom       ...     4977
Time for grid setup =    1.100 sec

--------------------
COSX GRID GENERATION
--------------------

GRIDX 1
-------
General Integration Accuracy     IntAcc      ... 3.816
Radial Grid Type                 RadialGrid  ... OptM3 with GC (2021)
Angular Grid (max. ang.)         AngularGrid ... 1 (Lebedev-50)
Angular grid pruning method      GridPruning ... 4 (adaptive)
Weight generation scheme         WeightScheme... Becke
Basis function cutoff            BFCut       ... 1.0000e-11
Integration weight cutoff        WCut        ... 1.0000e-14
Angular grids for H and He will be reduced by one unit
Partially contracted basis set               ... on
Rotationally invariant grid construction     ... off

Total number of grid points                  ...    22611
Total number of batches                      ...      371
Average number of points per batch           ...       60
Average number of grid points per atom       ...      628
UseSFitting                                  ... on

GRIDX 2
-------
General Integration Accuracy     IntAcc      ... 4.020
Radial Grid Type                 RadialGrid  ... OptM3 with GC (2021)
Angular Grid (max. ang.)         AngularGrid ... 2 (Lebedev-110)
Angular grid pruning method      GridPruning ... 4 (adaptive)
Weight generation scheme         WeightScheme... Becke
Basis function cutoff            BFCut       ... 1.0000e-11
Integration weight cutoff        WCut        ... 1.0000e-14
Angular grids for H and He will be reduced by one unit
Partially contracted basis set               ... on
Rotationally invariant grid construction     ... off

Total number of grid points                  ...    49564
Total number of batches                      ...      788
Average number of points per batch           ...       62
Average number of grid points per atom       ...     1377
UseSFitting                                  ... on

GRIDX 3
-------
General Integration Accuracy     IntAcc      ... 4.338
Radial Grid Type                 RadialGrid  ... OptM3 with GC (2021)
Angular Grid (max. ang.)         AngularGrid ... 3 (Lebedev-194)
Angular grid pruning method      GridPruning ... 4 (adaptive)
Weight generation scheme         WeightScheme... Becke
Basis function cutoff            BFCut       ... 1.0000e-11
Integration weight cutoff        WCut        ... 1.0000e-14
Angular grids for H and He will be reduced by one unit
Partially contracted basis set               ... on
Rotationally invariant grid construction     ... off

Total number of grid points                  ...   109616
Total number of batches                      ...     1732
Average number of points per batch           ...       63
Average number of grid points per atom       ...     3045
UseSFitting                                  ... on

Time for X-Grid setup             =    2.728 sec


--------------------
CPCM SOLVATION MODEL
--------------------
CPCM parameters:
  Epsilon                                         ...      37.2190
  Refrac                                          ...       1.4305
  Rsolv                                           ...       1.3000
  Surface type                                    ... GAUSSIAN VDW
  Epsilon function type                           ...         CPCM
Solvent:                                     ... DMF
SMD-CDS solvent descriptors:
  Soln                                       ...    1.4305
  Soln25                                     ...    1.4280
  Sola                                       ...    0.0000
  Solb                                       ...    0.7400
  Solg                                       ...   49.5600
  Solc                                       ...    0.0000
  Solh                                       ...    0.0000
Radii:
 Radius for C  used is    3.4960 Bohr (=   1.8500 Ang.)
 Radius for S  used is    4.7054 Bohr (=   2.4900 Ang.)
 Radius for O  used is    4.3350 Bohr (=   2.2940 Ang.)
 Radius for H  used is    2.2677 Bohr (=   1.2000 Ang.)
Calculating surface                               ...        done! (  0.1s)
GEPOL surface points                              ...         1874
GEPOL Volume                                      ...    2715.5404
GEPOL Surface-area                                ...    1360.8946
Calculating surface distance matrix               ...        done! (  0.0s)
Performing Cholesky decomposition & store         ...        done! (  0.3s)
Overall time for CPCM initialization              ...                 0.6s
--------------
SCF ITERATIONS
--------------
ITER       Energy         Delta-E        Max-DP      RMS-DP      [F,P]     Damp
               ***  Starting incremental Fock matrix formation  ***
  0  -1713.8731019687   0.000000000000 0.03452827  0.00037490  0.1406444 0.7000
  1  -1714.1248895413  -0.251787572611 0.03113732  0.00029097  0.0555949 0.7000
                               ***Turning on DIIS***
  2  -1714.2208462177  -0.095956676357 0.04883786  0.00049856  0.0176455 0.0000
  3  -1714.3801692352  -0.159323017510 0.02990978  0.00022930  0.0235035 0.0000
  4  -1714.4115064234  -0.031337188178 0.00829076  0.00008581  0.0092367 0.0000
  5  -1714.4138932128  -0.002386789380 0.00477662  0.00003788  0.0047426 0.0000
  6  -1714.4141367520  -0.000243539215 0.00147234  0.00001799  0.0005902 0.0000
               *** Restarting incremental Fock matrix formation ***
                                   *** Resetting DIIS ***
  7  -1714.4141113287   0.000025423276 0.00079748  0.00001123  0.0006469 0.0000
  8  -1714.4141069966   0.000004332118 0.00024931  0.00000181  0.0012889 0.0000
  9  -1714.4141144341  -0.000007437508 0.00029516  0.00000150  0.0001774 0.0000
 10  -1714.4141148951  -0.000000460989 0.00004591  0.00000055  0.0000447 0.0000
 11  -1714.4141149528  -0.000000057712 0.00003118  0.00000037  0.0000411 0.0000
 12  -1714.4141149775  -0.000000024728 0.00003393  0.00000033  0.0000070 0.0000
 13  -1714.4141149800  -0.000000002447 0.00004493  0.00000042  0.0000038 0.0000
 14  -1714.4141149629   0.000000017068 0.00003783  0.00000025  0.0000032 0.0000
                            ***DIIS convergence achieved***

               *****************************************************
               *                     SUCCESS                       *
               *           SCF CONVERGED AFTER  15 CYCLES          *
               *****************************************************

Old exchange energy                            =    -42.734187334 Eh
New exchange energy                            =    -42.734157834 Eh
Exchange energy change after final integration =      0.000029500 Eh
Total energy after final integration           =  -1714.414085485 Eh
Final COS-X integration done in                =    27.280 sec

SMD CDS free energy correction energy :                -5.95988     Kcal/mol
Total Energy after SMD CDS correction =             -1714.423583160 Eh

----------------
TOTAL SCF ENERGY
----------------

Total Energy       :        -1714.42358316 Eh          -46651.83743 eV

Components:
Nuclear Repulsion  :         1970.14224692 Eh           53610.29603 eV
Electronic Energy  :        -3684.56583008 Eh         -100262.13346 eV
One Electron Energy:        -6267.99071630 Eh         -170560.69853 eV
Two Electron Energy:         2583.42488622 Eh           70298.56506 eV
Max COSX asymmetry :            0.00000051 Eh               0.00001 eV
CPCM Dielectric    :           -0.02620405 Eh              -0.71305 eV
SMD CDS (Gcds)     :           -0.00949768 Eh              -0.25844 eV

Virial components:
Potential Energy   :        -3423.69065909 Eh          -93163.35917 eV
Kinetic Energy     :         1709.26707593 Eh           46511.52174 eV
Virial Ratio       :            2.00301679


DFT components:
N(Alpha)           :       86.999991454784 electrons
N(Beta)            :       86.999991454784 electrons
N(Total)           :      173.999982909568 electrons
E(X)               :     -127.855072337477 Eh       
E(C)               :       -6.031239371708 Eh       
E(XC)              :     -133.886311709185 Eh       
DFET-embed. en.    :        0.000000000000 Eh       
CPCM Solvation Model Properties:
Surface-charge          :           -0.03219110
Charge-correction       :            0.00038382 Eh               0.01044 eV
Free-energy (cav+disp)  :           -0.00949768 Eh              -0.25844 eV

---------------
SCF CONVERGENCE
---------------

  Last Energy change         ...   -2.1844e-08  Tolerance :   1.0000e-08
  Last MAX-Density change    ...    0.0000e+00  Tolerance :   1.0000e-07
  Last RMS-Density change    ...    0.0000e+00  Tolerance :   5.0000e-09
  Last DIIS Error            ...    4.4618e-07  Tolerance :   5.0000e-07

             **** THE GBW FILE WAS UPDATED (/burg/berkelbach/users/eav2136/projects/peroxide_dissociation/04_solvated_radical/dmf_peroxide/dmf_peroxide_opt.gbw) ****
             **** DENSITY /burg/berkelbach/users/eav2136/projects/peroxide_dissociation/04_solvated_radical/dmf_peroxide/dmf_peroxide_opt.scfp WAS UPDATED ****
             **** ENERGY FILE WAS UPDATED (/burg/berkelbach/users/eav2136/projects/peroxide_dissociation/04_solvated_radical/dmf_peroxide/dmf_peroxide_opt.en.tmp) ****
----------------------
UHF SPIN CONTAMINATION
----------------------

Warning: in a DFT calculation there is little theoretical justification to 
         calculate <S**2> as in Hartree-Fock theory. We will do it anyways
         but you should keep in mind that the values have only limited relevance

Expectation value of <S**2>     :    -0.000000
Ideal value S*(S+1) for S=0.0   :     0.000000
Deviation                       :    -0.000000

             **** THE GBW FILE WAS UPDATED (/burg/berkelbach/users/eav2136/projects/peroxide_dissociation/04_solvated_radical/dmf_peroxide/dmf_peroxide_opt.gbw) ****
             **** DENSITY /burg/berkelbach/users/eav2136/projects/peroxide_dissociation/04_solvated_radical/dmf_peroxide/dmf_peroxide_opt.scfp WAS UPDATED ****
----------------
ORBITAL ENERGIES
----------------
                 SPIN UP ORBITALS
  NO   OCC          E(Eh)            E(eV) 
   0   1.0000     -89.034542     -2422.7531 
   1   1.0000     -89.032801     -2422.7057 
   2   1.0000     -19.321723      -525.7708 
   3   1.0000     -19.320368      -525.7339 
   4   1.0000     -19.215858      -522.8901 
   5   1.0000     -19.210602      -522.7470 
   6   1.0000     -10.371579      -282.2250 
   7   1.0000     -10.367825      -282.1229 
   8   1.0000     -10.276326      -279.6330 
   9   1.0000     -10.274112      -279.5728 
  10   1.0000     -10.250748      -278.9370 
  11   1.0000     -10.249522      -278.9037 
  12   1.0000     -10.244577      -278.7691 
  13   1.0000     -10.244410      -278.7646 
  14   1.0000     -10.242866      -278.7225 
  15   1.0000     -10.242376      -278.7092 
  16   1.0000     -10.242193      -278.7042 
  17   1.0000     -10.241885      -278.6959 
  18   1.0000     -10.237066      -278.5647 
  19   1.0000     -10.236447      -278.5479 
  20   1.0000     -10.236221      -278.5417 
  21   1.0000     -10.236116      -278.5389 
  22   1.0000      -8.013267      -218.0521 
  23   1.0000      -8.011533      -218.0049 
  24   1.0000      -5.949759      -161.9012 
  25   1.0000      -5.948052      -161.8547 
  26   1.0000      -5.946077      -161.8010 
  27   1.0000      -5.944390      -161.7551 
  28   1.0000      -5.942295      -161.6981 
  29   1.0000      -5.940492      -161.6490 
  30   1.0000      -1.236613       -33.6499 
  31   1.0000      -1.125223       -30.6189 
  32   1.0000      -1.092932       -29.7402 
  33   1.0000      -0.995027       -27.0761 
  34   1.0000      -0.911073       -24.7916 
  35   1.0000      -0.910076       -24.7644 
  36   1.0000      -0.843929       -22.9645 
  37   1.0000      -0.842258       -22.9190 
  38   1.0000      -0.789440       -21.4817 
  39   1.0000      -0.787633       -21.4326 
  40   1.0000      -0.781493       -21.2655 
  41   1.0000      -0.779105       -21.2005 
  42   1.0000      -0.711628       -19.3644 
  43   1.0000      -0.695793       -18.9335 
  44   1.0000      -0.664414       -18.0796 
  45   1.0000      -0.646378       -17.5888 
  46   1.0000      -0.645009       -17.5516 
  47   1.0000      -0.628212       -17.0945 
  48   1.0000      -0.606960       -16.5162 
  49   1.0000      -0.592455       -16.1215 
  50   1.0000      -0.572722       -15.5846 
  51   1.0000      -0.564193       -15.3525 
  52   1.0000      -0.528709       -14.3869 
  53   1.0000      -0.511455       -13.9174 
  54   1.0000      -0.500388       -13.6162 
  55   1.0000      -0.497345       -13.5335 
  56   1.0000      -0.487233       -13.2583 
  57   1.0000      -0.480656       -13.0793 
  58   1.0000      -0.477542       -12.9946 
  59   1.0000      -0.467795       -12.7293 
  60   1.0000      -0.464482       -12.6392 
  61   1.0000      -0.451773       -12.2934 
  62   1.0000      -0.448965       -12.2170 
  63   1.0000      -0.445134       -12.1127 
  64   1.0000      -0.444698       -12.1008 
  65   1.0000      -0.444178       -12.0867 
  66   1.0000      -0.434583       -11.8256 
  67   1.0000      -0.419575       -11.4172 
  68   1.0000      -0.414756       -11.2861 
  69   1.0000      -0.405554       -11.0357 
  70   1.0000      -0.403513       -10.9802 
  71   1.0000      -0.388858       -10.5814 
  72   1.0000      -0.384960       -10.4753 
  73   1.0000      -0.371587       -10.1114 
  74   1.0000      -0.367961       -10.0127 
  75   1.0000      -0.366212        -9.9651 
  76   1.0000      -0.340359        -9.2616 
  77   1.0000      -0.339360        -9.2344 
  78   1.0000      -0.337520        -9.1844 
  79   1.0000      -0.325845        -8.8667 
  80   1.0000      -0.319533        -8.6949 
  81   1.0000      -0.312930        -8.5153 
  82   1.0000      -0.306866        -8.3502 
  83   1.0000      -0.284816        -7.7502 
  84   1.0000      -0.282150        -7.6777 
  85   1.0000      -0.232977        -6.3396 
  86   1.0000      -0.230796        -6.2803 
  87   0.0000      -0.061075        -1.6619 
  88   0.0000      -0.048112        -1.3092 
  89   0.0000      -0.019949        -0.5428 
  90   0.0000      -0.017945        -0.4883 
  91   0.0000      -0.001735        -0.0472 
  92   0.0000       0.027777         0.7559 
  93   0.0000       0.033081         0.9002 
  94   0.0000       0.034354         0.9348 
  95   0.0000       0.043791         1.1916 
  96   0.0000       0.056143         1.5277 
  97   0.0000       0.067924         1.8483 
  98   0.0000       0.083043         2.2597 
  99   0.0000       0.084676         2.3041 
 100   0.0000       0.091641         2.4937 
 101   0.0000       0.092051         2.5048 
 102   0.0000       0.095962         2.6113 
 103   0.0000       0.104409         2.8411 
 104   0.0000       0.113885         3.0990 
 105   0.0000       0.117644         3.2012 
 106   0.0000       0.119206         3.2438 
 107   0.0000       0.121426         3.3042 
 108   0.0000       0.124784         3.3955 
 109   0.0000       0.129594         3.5264 
 110   0.0000       0.132833         3.6146 
 111   0.0000       0.138359         3.7649 
 112   0.0000       0.145124         3.9490 
 113   0.0000       0.148789         4.0488 
 114   0.0000       0.151025         4.1096 
 115   0.0000       0.158425         4.3110 
 116   0.0000       0.164983         4.4894 
 117   0.0000       0.168794         4.5931 
 118   0.0000       0.180671         4.9163 
 119   0.0000       0.188520         5.1299 
 120   0.0000       0.198110         5.3909 
 121   0.0000       0.204707         5.5704 
 122   0.0000       0.209112         5.6902 
 123   0.0000       0.212132         5.7724 
 124   0.0000       0.215344         5.8598 
 125   0.0000       0.223359         6.0779 
 126   0.0000       0.226332         6.1588 
 127   0.0000       0.228475         6.2171 
 128   0.0000       0.229326         6.2403 
 129   0.0000       0.231707         6.3051 
 130   0.0000       0.237931         6.4744 
 131   0.0000       0.242827         6.6077 
 132   0.0000       0.246723         6.7137 
 133   0.0000       0.248205         6.7540 
 134   0.0000       0.253560         6.8997 
 135   0.0000       0.257004         6.9934 
 136   0.0000       0.259602         7.0641 
 137   0.0000       0.262339         7.1386 
 138   0.0000       0.263786         7.1780 
 139   0.0000       0.267306         7.2738 
 140   0.0000       0.275710         7.5025 
 141   0.0000       0.284608         7.7446 
 142   0.0000       0.289852         7.8873 
 143   0.0000       0.293585         7.9888 
 144   0.0000       0.298320         8.1177 
 145   0.0000       0.301786         8.2120 
 146   0.0000       0.306147         8.3307 
 147   0.0000       0.318285         8.6610 
 148   0.0000       0.320414         8.7189 
 149   0.0000       0.326570         8.8864 
 150   0.0000       0.329266         8.9598 
 151   0.0000       0.332856         9.0575 
 152   0.0000       0.339410         9.2358 
 153   0.0000       0.345427         9.3995 
 154   0.0000       0.346634         9.4324 
 155   0.0000       0.349346         9.5062 
 156   0.0000       0.352751         9.5988 
 157   0.0000       0.365298         9.9403 
 158   0.0000       0.368450        10.0260 
 159   0.0000       0.374229        10.1833 
 160   0.0000       0.377877        10.2826 
 161   0.0000       0.381460        10.3800 
 162   0.0000       0.384856        10.4725 
 163   0.0000       0.388577        10.5737 
 164   0.0000       0.394707        10.7405 
 165   0.0000       0.398554        10.8452 
 166   0.0000       0.404381        11.0038 
 167   0.0000       0.407728        11.0948 
 168   0.0000       0.411301        11.1921 
 169   0.0000       0.416808        11.3419 
 170   0.0000       0.418414        11.3856 
 171   0.0000       0.420451        11.4411 
 172   0.0000       0.426351        11.6016 
 173   0.0000       0.431083        11.7304 
 174   0.0000       0.437210        11.8971 
 175   0.0000       0.441145        12.0042 
 176   0.0000       0.445605        12.1255 
 177   0.0000       0.450690        12.2639 
 178   0.0000       0.455065        12.3830 
 179   0.0000       0.461422        12.5559 
 180   0.0000       0.464008        12.6263 
 181   0.0000       0.471093        12.8191 
 182   0.0000       0.473610        12.8876 
 183   0.0000       0.477762        13.0006 
 184   0.0000       0.480793        13.0830 
 185   0.0000       0.484465        13.1830 
 186   0.0000       0.490576        13.3493 
 187   0.0000       0.492511        13.4019 
 188   0.0000       0.500442        13.6177 
 189   0.0000       0.501092        13.6354 
 190   0.0000       0.507672        13.8144 
 191   0.0000       0.508332        13.8324 
 192   0.0000       0.513867        13.9830 
 193   0.0000       0.521974        14.2036 
 194   0.0000       0.527643        14.3579 
 195   0.0000       0.533658        14.5216 
 196   0.0000       0.537090        14.6150 
 197   0.0000       0.546077        14.8595 
 198   0.0000       0.547606        14.9011 
 199   0.0000       0.552466        15.0334 
 200   0.0000       0.556599        15.1458 
 201   0.0000       0.560213        15.2442 
 202   0.0000       0.561996        15.2927 
 203   0.0000       0.575415        15.6578 
 204   0.0000       0.581125        15.8132 
 205   0.0000       0.590033        16.0556 
 206   0.0000       0.598724        16.2921 
 207   0.0000       0.601641        16.3715 
 208   0.0000       0.607802        16.5391 
 209   0.0000       0.613579        16.6963 
 210   0.0000       0.626962        17.0605 
 211   0.0000       0.637019        17.3342 
 212   0.0000       0.639888        17.4123 
 213   0.0000       0.648396        17.6437 
 214   0.0000       0.653700        17.7881 
 215   0.0000       0.658562        17.9204 
 216   0.0000       0.667943        18.1756 
 217   0.0000       0.677774        18.4432 
 218   0.0000       0.681878        18.5548 
 219   0.0000       0.685552        18.6548 
 220   0.0000       0.694469        18.8975 
 221   0.0000       0.700234        19.0543 
 222   0.0000       0.702650        19.1201 
 223   0.0000       0.703440        19.1416 
 224   0.0000       0.709314        19.3014 
 225   0.0000       0.719102        19.5678 
 226   0.0000       0.719524        19.5792 
 227   0.0000       0.728432        19.8217 
 228   0.0000       0.733504        19.9597 
 229   0.0000       0.735075        20.0024 
 230   0.0000       0.744037        20.2463 
 231   0.0000       0.753511        20.5041 
 232   0.0000       0.760636        20.6980 
 233   0.0000       0.767751        20.8916 
 234   0.0000       0.772640        21.0246 
 235   0.0000       0.780228        21.2311 
 236   0.0000       0.781204        21.2576 
 237   0.0000       0.785676        21.3793 
 238   0.0000       0.786133        21.3918 
 239   0.0000       0.799902        21.7664 
 240   0.0000       0.803038        21.8518 
 241   0.0000       0.804393        21.8887 
 242   0.0000       0.809780        22.0352 
 243   0.0000       0.818508        22.2727 
 244   0.0000       0.821624        22.3575 
 245   0.0000       0.829023        22.5589 
 246   0.0000       0.840163        22.8620 
 247   0.0000       0.849017        23.1029 
 248   0.0000       0.860070        23.4037 
 249   0.0000       0.864555        23.5257 
 250   0.0000       0.873715        23.7750 
 251   0.0000       0.875778        23.8311 
 252   0.0000       0.877928        23.8896 
 253   0.0000       0.889079        24.1931 
 254   0.0000       0.894849        24.3501 
 255   0.0000       0.901856        24.5408 
 256   0.0000       0.912924        24.8419 
 257   0.0000       0.916875        24.9494 
 258   0.0000       0.920987        25.0613 
 259   0.0000       0.929823        25.3018 
 260   0.0000       0.934836        25.4382 
 261   0.0000       0.946269        25.7493 
 262   0.0000       0.950768        25.8717 
 263   0.0000       0.959354        26.1053 
 264   0.0000       0.967460        26.3259 
 265   0.0000       0.971841        26.4451 
 266   0.0000       0.977670        26.6038 
 267   0.0000       0.983183        26.7538 
 268   0.0000       0.986814        26.8526 
 269   0.0000       1.003182        27.2980 
 270   0.0000       1.008076        27.4311 
 271   0.0000       1.014570        27.6079 
 272   0.0000       1.021202        27.7883 
 273   0.0000       1.030181        28.0327 
 274   0.0000       1.042633        28.3715 
 275   0.0000       1.047798        28.5120 
 276   0.0000       1.053558        28.6688 
 277   0.0000       1.061357        28.8810 
 278   0.0000       1.079292        29.3690 
 279   0.0000       1.080023        29.3889 
 280   0.0000       1.089352        29.6428 
 281   0.0000       1.093357        29.7518 
 282   0.0000       1.104257        30.0484 
 283   0.0000       1.110715        30.2241 
 284   0.0000       1.132607        30.8198 
 285   0.0000       1.135919        30.9099 
 286   0.0000       1.150510        31.3070 
 287   0.0000       1.163743        31.6670 
 288   0.0000       1.173900        31.9435 
 289   0.0000       1.180533        32.1239 
 290   0.0000       1.196444        32.5569 
 291   0.0000       1.211627        32.9701 
 292   0.0000       1.218114        33.1466 
 293   0.0000       1.226706        33.3804 
 294   0.0000       1.231260        33.5043 
 295   0.0000       1.237883        33.6845 
 296   0.0000       1.241370        33.7794 
 297   0.0000       1.245151        33.8823 
 298   0.0000       1.256348        34.1870 
 299   0.0000       1.265530        34.4368 
 300   0.0000       1.279225        34.8095 
 301   0.0000       1.284029        34.9402 
 302   0.0000       1.296457        35.2784 
 303   0.0000       1.299384        35.3580 
 304   0.0000       1.303573        35.4720 
 305   0.0000       1.306796        35.5597 
 306   0.0000       1.320856        35.9423 
 307   0.0000       1.334965        36.3262 
 308   0.0000       1.337783        36.4029 
 309   0.0000       1.348905        36.7056 
 310   0.0000       1.366005        37.1709 
 311   0.0000       1.376671        37.4611 
 312   0.0000       1.392497        37.8918 
 313   0.0000       1.401337        38.1323 
 314   0.0000       1.417531        38.5730 
 315   0.0000       1.426815        38.8256 
 316   0.0000       1.446511        39.3616 
 317   0.0000       1.450256        39.4635 
 318   0.0000       1.455797        39.6143 
 319   0.0000       1.461556        39.7710 
 320   0.0000       1.469668        39.9917 
 321   0.0000       1.479143        40.2495 
 322   0.0000       1.489213        40.5235 
 323   0.0000       1.494932        40.6792 
 324   0.0000       1.500368        40.8271 
 325   0.0000       1.507930        41.0329 
 326   0.0000       1.514211        41.2038 
 327   0.0000       1.518803        41.3287 
 328   0.0000       1.519869        41.3577 
 329   0.0000       1.522439        41.4277 
 330   0.0000       1.528522        41.5932 
 331   0.0000       1.532431        41.6996 
 332   0.0000       1.535283        41.7772 
 333   0.0000       1.537612        41.8405 
 334   0.0000       1.542919        41.9850 
 335   0.0000       1.546530        42.0832 
 336   0.0000       1.556777        42.3621 
 337   0.0000       1.562273        42.5116 
 338   0.0000       1.563983        42.5581 
 339   0.0000       1.566175        42.6178 
 340   0.0000       1.571555        42.7642 
 341   0.0000       1.578206        42.9452 
 342   0.0000       1.584806        43.1248 
 343   0.0000       1.593187        43.3528 
 344   0.0000       1.596134        43.4330 
 345   0.0000       1.600734        43.5582 
 346   0.0000       1.609065        43.7849 
 347   0.0000       1.610763        43.8311 
 348   0.0000       1.617861        44.0242 
 349   0.0000       1.624655        44.2091 
 350   0.0000       1.631246        44.3885 
 351   0.0000       1.635118        44.4938 
 352   0.0000       1.636136        44.5215 
 353   0.0000       1.650672        44.9171 
 354   0.0000       1.661174        45.2028 
 355   0.0000       1.667615        45.3781 
 356   0.0000       1.674990        45.5788 
 357   0.0000       1.680611        45.7317 
 358   0.0000       1.687806        45.9275 
 359   0.0000       1.693564        46.0842 
 360   0.0000       1.696217        46.1564 
 361   0.0000       1.700023        46.2600 
 362   0.0000       1.705052        46.3968 
 363   0.0000       1.710594        46.5476 
 364   0.0000       1.724620        46.9293 
 365   0.0000       1.729158        47.0528 
 366   0.0000       1.733857        47.1807 
 367   0.0000       1.743847        47.4525 
 368   0.0000       1.755173        47.7607 
 369   0.0000       1.758419        47.8490 
 370   0.0000       1.785463        48.5849 
 371   0.0000       1.791816        48.7578 
 372   0.0000       1.802958        49.0610 
 373   0.0000       1.817596        49.4593 
 374   0.0000       1.819694        49.5164 
 375   0.0000       1.824262        49.6407 
 376   0.0000       1.830584        49.8127 
 377   0.0000       1.833535        49.8930 
 378   0.0000       1.837751        50.0077 
 379   0.0000       1.847202        50.2649 
 380   0.0000       1.852236        50.4019 
 381   0.0000       1.853918        50.4477 
 382   0.0000       1.861291        50.6483 
 383   0.0000       1.863682        50.7134 
 384   0.0000       1.871757        50.9331 
 385   0.0000       1.873346        50.9763 
 386   0.0000       1.880945        51.1831 
 387   0.0000       1.884609        51.2828 
 388   0.0000       1.888506        51.3889 
 389   0.0000       1.894463        51.5510 
 390   0.0000       1.907938        51.9176 
 391   0.0000       1.910538        51.9884 
 392   0.0000       1.926882        52.4331 
 393   0.0000       1.938665        52.7537 
 394   0.0000       1.953060        53.1455 
 395   0.0000       1.970302        53.6146 
 396   0.0000       1.976331        53.7787 
 397   0.0000       1.982055        53.9344 
 398   0.0000       1.985310        54.0230 
 399   0.0000       2.007043        54.6144 
 400   0.0000       2.019893        54.9641 
 401   0.0000       2.025988        55.1299 
 402   0.0000       2.035955        55.4011 
 403   0.0000       2.039283        55.4917 
 404   0.0000       2.055917        55.9443 
 405   0.0000       2.066083        56.2210 
 406   0.0000       2.080359        56.6094 
 407   0.0000       2.087135        56.7938 
 408   0.0000       2.092566        56.9416 
 409   0.0000       2.099437        57.1286 
 410   0.0000       2.102635        57.2156 
 411   0.0000       2.104668        57.2709 
 412   0.0000       2.108606        57.3781 
 413   0.0000       2.120605        57.7046 
 414   0.0000       2.124829        57.8195 
[...]
      px      :     0.000000
      py      :     0.000000
      dz2     :     0.000000  d :     0.000000
      dxz     :     0.000000
      dyz     :     0.000000
      dx2y2   :     0.000000
      dxy     :     0.000000
      f0      :     0.000000  f :     0.000000
      f+1     :     0.000000
      f-1     :     0.000000
      f+2     :     0.000000
      f-2     :     0.000000
      f+3     :     0.000000
      f-3     :     0.000000
  7 C s       :     0.000000  s :     0.000000
      pz      :     0.000000  p :     0.000000
      px      :     0.000000
      py      :     0.000000
      dz2     :     0.000000  d :     0.000000
      dxz     :     0.000000
      dyz     :     0.000000
      dx2y2   :     0.000000
      dxy     :     0.000000
      f0      :     0.000000  f :     0.000000
      f+1     :     0.000000
      f-1     :     0.000000
      f+2     :     0.000000
      f-2     :     0.000000
      f+3     :     0.000000
      f-3     :     0.000000
  8 C s       :     0.000000  s :     0.000000
      pz      :     0.000000  p :     0.000000
      px      :     0.000000
      py      :     0.000000
      dz2     :     0.000000  d :     0.000000
      dxz     :     0.000000
      dyz     :     0.000000
      dx2y2   :     0.000000
      dxy     :     0.000000
      f0      :     0.000000  f :     0.000000
      f+1     :     0.000000
      f-1     :     0.000000
      f+2     :     0.000000
      f-2     :     0.000000
      f+3     :     0.000000
      f-3     :     0.000000
  9 O s       :     0.000000  s :     0.000000
      pz      :     0.000000  p :     0.000000
      px      :     0.000000
      py      :     0.000000
      dz2     :     0.000000  d :     0.000000
      dxz     :     0.000000
      dyz     :     0.000000
      dx2y2   :     0.000000
      dxy     :     0.000000
      f0      :     0.000000  f :     0.000000
      f+1     :     0.000000
      f-1     :     0.000000
      f+2     :     0.000000
      f-2     :     0.000000
      f+3     :     0.000000
      f-3     :     0.000000
 10 O s       :     0.000000  s :     0.000000
      pz      :     0.000000  p :     0.000000
      px      :     0.000000
      py      :     0.000000
      dz2     :     0.000000  d :     0.000000
      dxz     :     0.000000
      dyz     :     0.000000
      dx2y2   :     0.000000
      dxy     :     0.000000
      f0      :     0.000000  f :     0.000000
      f+1     :     0.000000
      f-1     :     0.000000
      f+2     :     0.000000
      f-2     :     0.000000
      f+3     :     0.000000
      f-3     :     0.000000
 11 O s       :     0.000000  s :     0.000000
      pz      :     0.000000  p :     0.000000
      px      :     0.000000
      py      :     0.000000
      dz2     :     0.000000  d :     0.000000
      dxz     :     0.000000
      dyz     :     0.000000
      dx2y2   :     0.000000
      dxy     :     0.000000
      f0      :     0.000000  f :     0.000000
      f+1     :     0.000000
      f-1     :     0.000000
      f+2     :     0.000000
      f-2     :     0.000000
      f+3     :     0.000000
      f-3     :     0.000000
 12 C s       :     0.000000  s :     0.000000
      pz      :     0.000000  p :     0.000000
      px      :     0.000000
      py      :     0.000000
      dz2     :     0.000000  d :     0.000000
      dxz     :     0.000000
      dyz     :     0.000000
      dx2y2   :     0.000000
      dxy     :     0.000000
      f0      :     0.000000  f :     0.000000
      f+1     :     0.000000
      f-1     :     0.000000
      f+2     :     0.000000
      f-2     :     0.000000
      f+3     :     0.000000
      f-3     :     0.000000
 13 C s       :     0.000000  s :     0.000000
      pz      :     0.000000  p :     0.000000
      px      :     0.000000
      py      :     0.000000
      dz2     :     0.000000  d :     0.000000
      dxz     :     0.000000
      dyz     :     0.000000
      dx2y2   :     0.000000
      dxy     :     0.000000
      f0      :     0.000000  f :     0.000000
      f+1     :     0.000000
      f-1     :     0.000000
      f+2     :     0.000000
      f-2     :     0.000000
      f+3     :     0.000000
      f-3     :     0.000000
 14 O s       :     0.000000  s :     0.000000
      pz      :     0.000000  p :     0.000000
      px      :     0.000000
      py      :     0.000000
      dz2     :     0.000000  d :     0.000000
      dxz     :     0.000000
      dyz     :     0.000000
      dx2y2   :     0.000000
      dxy     :     0.000000
      f0      :     0.000000  f :     0.000000
      f+1     :     0.000000
      f-1     :     0.000000
      f+2     :     0.000000
      f-2     :     0.000000
      f+3     :     0.000000
      f-3     :     0.000000
 15 C s       :     0.000000  s :     0.000000
      pz      :     0.000000  p :     0.000000
      px      :     0.000000
      py      :     0.000000
      dz2     :     0.000000  d :     0.000000
      dxz     :     0.000000
      dyz     :     0.000000
      dx2y2   :     0.000000
      dxy     :     0.000000
      f0      :     0.000000  f :     0.000000
      f+1     :     0.000000
      f-1     :     0.000000
      f+2     :     0.000000
      f-2     :     0.000000
      f+3     :     0.000000
      f-3     :     0.000000
 16 C s       :     0.000000  s :     0.000000
      pz      :     0.000000  p :     0.000000
      px      :     0.000000
      py      :     0.000000
      dz2     :     0.000000  d :     0.000000
      dxz     :     0.000000
      dyz     :     0.000000
      dx2y2   :     0.000000
      dxy     :     0.000000
      f0      :     0.000000  f :     0.000000
      f+1     :     0.000000
      f-1     :     0.000000
      f+2     :     0.000000
      f-2     :     0.000000
      f+3     :     0.000000
      f-3     :     0.000000
 17 C s       :     0.000000  s :     0.000000
      pz      :     0.000000  p :     0.000000
      px      :     0.000000
      py      :     0.000000
      dz2     :     0.000000  d :     0.000000
      dxz     :     0.000000
      dyz     :     0.000000
      dx2y2   :     0.000000
      dxy     :     0.000000
      f0      :     0.000000  f :     0.000000
      f+1     :     0.000000
      f-1     :     0.000000
      f+2     :     0.000000
      f-2     :     0.000000
      f+3     :     0.000000
      f-3     :     0.000000
 18 C s       :     0.000000  s :     0.000000
      pz      :     0.000000  p :     0.000000
      px      :     0.000000
      py      :     0.000000
      dz2     :     0.000000  d :     0.000000
      dxz     :     0.000000
      dyz     :     0.000000
      dx2y2   :     0.000000
      dxy     :     0.000000
      f0      :     0.000000  f :     0.000000
      f+1     :     0.000000
      f-1     :     0.000000
      f+2     :     0.000000
      f-2     :     0.000000
      f+3     :     0.000000
      f-3     :     0.000000
 19 C s       :     0.000000  s :     0.000000
      pz      :     0.000000  p :     0.000000
      px      :     0.000000
      py      :     0.000000
      dz2     :     0.000000  d :     0.000000
      dxz     :     0.000000
      dyz     :     0.000000
      dx2y2   :     0.000000
      dxy     :     0.000000
      f0      :     0.000000  f :     0.000000
      f+1     :     0.000000
      f-1     :     0.000000
      f+2     :     0.000000
      f-2     :     0.000000
      f+3     :     0.000000
      f-3     :     0.000000
 20 S s       :     0.000000  s :     0.000000
      pz      :     0.000000  p :     0.000000
      px      :     0.000000
      py      :     0.000000
      dz2     :     0.000000  d :     0.000000
      dxz     :     0.000000
      dyz     :     0.000000
      dx2y2   :     0.000000
      dxy     :     0.000000
      f0      :     0.000000  f :     0.000000
      f+1     :     0.000000
      f-1     :     0.000000
      f+2     :     0.000000
      f-2     :     0.000000
      f+3     :     0.000000
      f-3     :     0.000000
 21 C s       :     0.000000  s :     0.000000
      pz      :     0.000000  p :     0.000000
      px      :     0.000000
      py      :     0.000000
      dz2     :     0.000000  d :     0.000000
      dxz     :     0.000000
      dyz     :     0.000000
      dx2y2   :     0.000000
      dxy     :     0.000000
      f0      :     0.000000  f :     0.000000
      f+1     :     0.000000
      f-1     :     0.000000
      f+2     :     0.000000
      f-2     :     0.000000
      f+3     :     0.000000
      f-3     :     0.000000
 22 H s       :     0.000000  s :     0.000000
      pz      :     0.000000  p :     0.000000
      px      :     0.000000
      py      :     0.000000
 23 H s       :     0.000000  s :     0.000000
      pz      :     0.000000  p :     0.000000
      px      :     0.000000
      py      :     0.000000
 24 H s       :     0.000000  s :     0.000000
      pz      :     0.000000  p :     0.000000
      px      :     0.000000
      py      :     0.000000
 25 H s       :     0.000000  s :     0.000000
      pz      :     0.000000  p :     0.000000
      px      :     0.000000
      py      :     0.000000
 26 H s       :     0.000000  s :     0.000000
      pz      :     0.000000  p :     0.000000
      px      :     0.000000
      py      :     0.000000
 27 H s       :     0.000000  s :     0.000000
      pz      :     0.000000  p :     0.000000
      px      :     0.000000
      py      :     0.000000
 28 H s       :     0.000000  s :     0.000000
      pz      :     0.000000  p :     0.000000
      px      :     0.000000
      py      :     0.000000
 29 H s       :     0.000000  s :     0.000000
      pz      :     0.000000  p :     0.000000
      px      :     0.000000
      py      :     0.000000
 30 H s       :     0.000000  s :     0.000000
      pz      :     0.000000  p :     0.000000
      px      :     0.000000
      py      :     0.000000
 31 H s       :     0.000000  s :     0.000000
      pz      :     0.000000  p :     0.000000
      px      :     0.000000
      py      :     0.000000
 32 H s       :     0.000000  s :     0.000000
      pz      :     0.000000  p :     0.000000
      px      :     0.000000
      py      :     0.000000
 33 H s       :     0.000000  s :     0.000000
      pz      :     0.000000  p :     0.000000
      px      :     0.000000
      py      :     0.000000
 34 H s       :     0.000000  s :     0.000000
      pz      :     0.000000  p :     0.000000
      px      :     0.000000
      py      :     0.000000
 35 H s       :     0.000000  s :     0.000000
      pz      :     0.000000  p :     0.000000
      px      :     0.000000
      py      :     0.000000


                      *****************************
                      * MAYER POPULATION ANALYSIS *
                      *****************************

  NA   - Mulliken gross atomic population
  ZA   - Total nuclear charge
  QA   - Mulliken gross atomic charge
  VA   - Mayer's total valence
  BVA  - Mayer's bonded valence
  FA   - Mayer's free valence

  ATOM       NA         ZA         QA         VA         BVA        FA
  0 C      6.4194     6.0000    -0.4194     3.9227     3.9227    -0.0000
  1 S     16.0594    16.0000    -0.0594     2.4448     2.4448    -0.0000
  2 C      5.8416     6.0000     0.1584     3.8379     3.8379    -0.0000
  3 C      6.2307     6.0000    -0.2307     3.8743     3.8743     0.0000
  4 C      6.2341     6.0000    -0.2341     3.9982     3.9982     0.0000
  5 C      5.8538     6.0000     0.1462     3.5320     3.5320     0.0000
  6 C      6.2595     6.0000    -0.2595     4.0161     4.0161     0.0000
  7 C      6.1906     6.0000    -0.1906     3.8665     3.8665     0.0000
  8 C      5.7265     6.0000     0.2735     4.3404     4.3404     0.0000
  9 O      8.0817     8.0000    -0.0817     2.0161     2.0161    -0.0000
 10 O      8.3022     8.0000    -0.3022     2.2223     2.2223    -0.0000
 11 O      8.1143     8.0000    -0.1143     2.0420     2.0420     0.0000
 12 C      5.7142     6.0000     0.2858     4.3058     4.3058     0.0000
 13 C      5.8825     6.0000     0.1175     3.5320     3.5320    -0.0000
 14 O      8.3142     8.0000    -0.3142     2.2013     2.2013     0.0000
 15 C      6.2403     6.0000    -0.2403     3.9909     3.9909    -0.0000
 16 C      6.1848     6.0000    -0.1848     3.8660     3.8660     0.0000
 17 C      5.8325     6.0000     0.1675     3.8339     3.8339    -0.0000
 18 C      6.2379     6.0000    -0.2379     3.8825     3.8825    -0.0000
 19 C      6.2298     6.0000    -0.2298     3.9761     3.9761    -0.0000
 20 S     16.0516    16.0000    -0.0516     2.4619     2.4619     0.0000
 21 C      6.4193     6.0000    -0.4193     3.9229     3.9229    -0.0000
 22 H      0.8097     1.0000     0.1903     0.9553     0.9553     0.0000
 23 H      0.8244     1.0000     0.1756     0.9576     0.9576     0.0000
 24 H      0.8246     1.0000     0.1754     0.9559     0.9559     0.0000
 25 H      0.8278     1.0000     0.1722     0.9649     0.9649    -0.0000
 26 H      0.8327     1.0000     0.1673     0.9750     0.9750    -0.0000
 27 H      0.8333     1.0000     0.1667     0.9668     0.9668    -0.0000
 28 H      0.8391     1.0000     0.1609     0.9678     0.9678    -0.0000
 29 H      0.8369     1.0000     0.1631     0.9776     0.9776     0.0000
 30 H      0.8392     1.0000     0.1608     0.9690     0.9690     0.0000
 31 H      0.8279     1.0000     0.1721     0.9654     0.9654     0.0000
 32 H      0.8268     1.0000     0.1732     0.9688     0.9688     0.0000
 33 H      0.8089     1.0000     0.1911     0.9551     0.9551    -0.0000
 34 H      0.8239     1.0000     0.1761     0.9568     0.9568    -0.0000
 35 H      0.8238     1.0000     0.1762     0.9566     0.9566    -0.0000

  Mayer bond orders larger than 0.100000
B(  0-C ,  1-S ) :   1.0642 B(  0-C , 22-H ) :   0.9366 B(  0-C , 23-H ) :   0.9486 
B(  0-C , 24-H ) :   0.9469 B(  1-S ,  2-C ) :   1.1839 B(  2-C ,  3-C ) :   1.2796 
B(  2-C ,  7-C ) :   1.2767 B(  3-C ,  4-C ) :   1.4538 B(  3-C , 25-H ) :   0.9607 
B(  4-C ,  5-C ) :   1.3119 B(  4-C , 26-H ) :   0.9410 B(  5-C ,  6-C ) :   1.3056 
B(  5-C ,  8-C ) :   0.9607 B(  6-C ,  7-C ) :   1.4762 B(  6-C , 27-H ) :   0.9784 
B(  7-C , 28-H ) :   0.9750 B(  8-C ,  9-O ) :   1.1171 B(  8-C , 10-O ) :   2.1348 
B(  9-O , 11-O ) :   0.8168 B( 11-O , 12-C ) :   1.0999 B( 12-C , 13-C ) :   0.9896 
B( 12-C , 14-O ) :   2.0755 B( 13-C , 15-C ) :   1.2883 B( 13-C , 19-C ) :   1.3198 
B( 15-C , 16-C ) :   1.4904 B( 15-C , 29-H ) :   0.9747 B( 16-C , 17-C ) :   1.2599 
B( 16-C , 30-H ) :   0.9766 B( 17-C , 18-C ) :   1.2830 B( 17-C , 20-S ) :   1.1959 
B( 18-C , 19-C ) :   1.4511 B( 18-C , 31-H ) :   0.9607 B( 19-C , 32-H ) :   0.9598 
B( 20-S , 21-C ) :   1.0639 B( 21-C , 33-H ) :   0.9361 B( 21-C , 34-H ) :   0.9477 
B( 21-C , 35-H ) :   0.9476 

-------
TIMINGS
-------

Total SCF time: 0 days 0 hours 2 min 40 sec 

Total time                  ....     160.694 sec
Sum of individual times     ....     158.102 sec  ( 98.4%)

Fock matrix formation       ....     149.351 sec  ( 92.9%)
  Split-RI-J                ....       8.951 sec  (  6.0% of F)
  Chain of spheres X        ....     109.943 sec  ( 73.6% of F)
  XC integration            ....      16.710 sec  ( 11.2% of F)
    Basis function eval.    ....       2.710 sec  ( 16.2% of XC)
    Density eval.           ....       7.414 sec  ( 44.4% of XC)
    XC-Functional eval.     ....       0.363 sec  (  2.2% of XC)
    XC-Potential eval.      ....       3.845 sec  ( 23.0% of XC)
Diagonalization             ....       3.444 sec  (  2.1%)
Density matrix formation    ....       0.145 sec  (  0.1%)
Population analysis         ....       0.345 sec  (  0.2%)
Initial guess               ....       0.515 sec  (  0.3%)
Orbital Transformation      ....       0.000 sec  (  0.0%)
Orbital Orthonormalization  ....       0.454 sec  (  0.3%)
DIIS solution               ....       1.371 sec  (  0.9%)
Grid generation             ....       2.932 sec  (  1.8%)

Maximum memory used throughout the entire SCF-calculation: 185.7 MB


-------------------------------------------------------------------------------
                          DFT DISPERSION CORRECTION                            
                                                                               
                              DFTD3 V3.1  Rev 1                                
                          USING Becke-Johnson damping                          
-------------------------------------------------------------------------------
The PBE0 functional is recognized
Active option DFTDOPT                   ...         4   

molecular C6(AA) [au] = 19260.944697 


            DFT-D V3
 parameters
 s6 scaling factor         :     1.0000 
 a1 scaling factor         :     0.4145 
 s8 scaling factor         :     1.2177 
 a2 scaling factor         :     4.8593 
 ad hoc parameters k1-k3   :    16.0000     1.3333    -4.0000 

 Edisp/kcal,au: -27.747303972381  -0.044218138784 
 E6   /kcal   : -17.146244963 
 E8   /kcal   : -10.601059010 
 % E8         :  38.205726295 

-------------------------   ----------------
Dispersion correction           -0.044218139
-------------------------   ----------------


-------------------------   --------------------
FINAL SINGLE POINT ENERGY     -1714.468033423595
-------------------------   --------------------

                                *** OPTIMIZATION RUN DONE ***

                            ***************************************
                            *     ORCA property calculations      *
                            ***************************************

                                    ---------------------
                                    Active property flags
                                    ---------------------
   (+) Dipole Moment


------------------------------------------------------------------------------
                       ORCA ELECTRIC PROPERTIES CALCULATION
------------------------------------------------------------------------------

Dipole Moment Calculation                       ... on
Quadrupole Moment Calculation                   ... off
Polarizability Calculation                      ... off
GBWName                                         ... /burg/berkelbach/users/eav2136/projects/peroxide_dissociation/04_solvated_radical/dmf_peroxide/dmf_peroxide_opt.gbw
Electron density                                ... /burg/berkelbach/users/eav2136/projects/peroxide_dissociation/04_solvated_radical/dmf_peroxide/dmf_peroxide_opt.scfp
The origin for moment calculation is the CENTER OF MASS  = (-0.248819,  3.455213  5.645473)

-------------
DIPOLE MOMENT
-------------
                                X             Y             Z
Electronic contribution:     -0.83679      -8.69742     -13.45743
Nuclear contribution   :      1.40640      10.53763      17.33165
                        -----------------------------------------
Total Dipole Moment    :      0.56961       1.84021       3.87421
                        -----------------------------------------
Magnitude (a.u.)       :      4.32670
Magnitude (Debye)      :     10.99760



--------------------
Rotational spectrum 
--------------------
 
Rotational constants in cm-1:     0.008909     0.005351     0.003658 
Rotational constants in MHz :   267.083667   160.420262   109.670086 

 Dipole components along the rotational axes: 
x,y,z [a.u.] :     2.398252     3.586304    -0.327359 
x,y,z [Debye]:     6.095871     9.115659    -0.832081 

 

Timings for individual modules:

Sum of individual times         ...     3088.325 sec (=  51.472 min)
GTO integral calculation        ...       53.221 sec (=   0.887 min)   1.7 %
SCF iterations                  ...     2386.012 sec (=  39.767 min)  77.3 %
SCF Gradient evaluation         ...      647.292 sec (=  10.788 min)  21.0 %
Geometry relaxation             ...        1.800 sec (=   0.030 min)   0.1 %
                             ****ORCA TERMINATED NORMALLY****
TOTAL RUN TIME: 0 days 0 hours 51 minutes 43 seconds 85 msec
