Job execution start: Fri Apr 22 11:46:04 EDT 2022
Shared library path: /cm/shared/apps/cuda11.0/toolkit/11.0.3/compat:/burg/berkelbach/users/eav2136/builds/orca/5.0.3/orca:/cm/shared/apps/ucx/1.8.1/lib64:/cm/local/apps/cuda/libs/current/lib64:/cm/shared/apps/cuda11.0/toolkit/11.0.3/targets/x86_64-linux/lib:/cm/shared/apps/cuda11.0/visual-tools/11.0.3/libnvvp:/burg/opt/openmpi-4.1.1_ucx_cuda_11.0.3_support/lib:/cm/shared/apps/slurm/current/lib64/slurm:/cm/shared/apps/slurm/current/lib64
Slurm Job ID is: 1845674
Slurm Job name is: wb97x-v-peroxide-dmf_opt
g068

                                 *****************
                                 * O   R   C   A *
                                 *****************

                                            #,                                       
                                            ###                                      
                                            ####                                     
                                            #####                                    
                                            ######                                   
                                           ########,                                 
                                     ,,################,,,,,                         
                               ,,#################################,,                 
                          ,,##########################################,,             
                       ,#########################################, ''#####,          
                    ,#############################################,,   '####,        
                  ,##################################################,,,,####,       
                ,###########''''           ''''###############################       
              ,#####''   ,,,,##########,,,,          '''####'''          '####       
            ,##' ,,,,###########################,,,                        '##       
           ' ,,###''''                  '''############,,,                           
         ,,##''                                '''############,,,,        ,,,,,,###''
      ,#''                                            '''#######################'''  
     '                                                          ''''####''''         
             ,#######,   #######,   ,#######,      ##                                
            ,#'     '#,  ##    ##  ,#'     '#,    #''#        ######   ,####,        
            ##       ##  ##   ,#'  ##            #'  '#       #        #'  '#        
            ##       ##  #######   ##           ,######,      #####,   #    #        
            '#,     ,#'  ##    ##  '#,     ,#' ,#      #,         ##   #,  ,#        
             '#######'   ##     ##  '#######'  #'      '#     #####' # '####'        



                  #######################################################
                  #                        -***-                        #
                  #          Department of theory and spectroscopy      #
                  #    Directorship and core code : Frank Neese         #
                  #        Max Planck Institute fuer Kohlenforschung    #
                  #                Kaiser Wilhelm Platz 1               #
                  #                 D-45470 Muelheim/Ruhr               #
                  #                      Germany                        #
                  #                                                     #
                  #                  All rights reserved                #
                  #                        -***-                        #
                  #######################################################


                         Program Version 5.0.3 -  RELEASE  -


 With contributions from (in alphabetic order):
   Daniel Aravena         : Magnetic Suceptibility
   Michael Atanasov       : Ab Initio Ligand Field Theory (pilot matlab implementation)
   Alexander A. Auer      : GIAO ZORA, VPT2 properties, NMR spectrum
   Ute Becker             : Parallelization
   Giovanni Bistoni       : ED, misc. LED, open-shell LED, HFLD
   Martin Brehm           : Molecular dynamics
   Dmytro Bykov           : SCF Hessian
   Vijay G. Chilkuri      : MRCI spin determinant printing, contributions to CSF-ICE
   Dipayan Datta          : RHF DLPNO-CCSD density
   Achintya Kumar Dutta   : EOM-CC, STEOM-CC
   Dmitry Ganyushin       : Spin-Orbit,Spin-Spin,Magnetic field MRCI
   Miquel Garcia          : C-PCM and meta-GGA Hessian, CC/C-PCM, Gaussian charge scheme
   Yang Guo               : DLPNO-NEVPT2, F12-NEVPT2, CIM, IAO-localization
   Andreas Hansen         : Spin unrestricted coupled pair/coupled cluster methods
   Benjamin Helmich-Paris : MC-RPA, TRAH-SCF, COSX integrals
   Lee Huntington         : MR-EOM, pCC
   Robert Izsak           : Overlap fitted RIJCOSX, COSX-SCS-MP3, EOM
   Marcus Kettner         : VPT2
   Christian Kollmar      : KDIIS, OOCD, Brueckner-CCSD(T), CCSD density, CASPT2, CASPT2-K
   Simone Kossmann        : Meta GGA functionals, TD-DFT gradient, OOMP2, MP2 Hessian
   Martin Krupicka        : Initial AUTO-CI
   Lucas Lang             : DCDCAS
   Marvin Lechner         : AUTO-CI (C++ implementation), FIC-MRCC
   Dagmar Lenk            : GEPOL surface, SMD
   Dimitrios Liakos       : Extrapolation schemes; Compound Job, initial MDCI parallelization
   Dimitrios Manganas     : Further ROCIS development; embedding schemes
   Dimitrios Pantazis     : SARC Basis sets
   Anastasios Papadopoulos: AUTO-CI, single reference methods and gradients
   Taras Petrenko         : DFT Hessian,TD-DFT gradient, ASA, ECA, R-Raman, ABS, FL, XAS/XES, NRVS
   Peter Pinski           : DLPNO-MP2, DLPNO-MP2 Gradient
   Christoph Reimann      : Effective Core Potentials
   Marius Retegan         : Local ZFS, SOC
   Christoph Riplinger    : Optimizer, TS searches, QM/MM, DLPNO-CCSD(T), (RO)-DLPNO pert. Triples
   Tobias Risthaus        : Range-separated hybrids, TD-DFT gradient, RPA, STAB
   Michael Roemelt        : Original ROCIS implementation
   Masaaki Saitow         : Open-shell DLPNO-CCSD energy and density
   Barbara Sandhoefer     : DKH picture change effects
   Avijit Sen             : IP-ROCIS
   Kantharuban Sivalingam : CASSCF convergence, NEVPT2, FIC-MRCI
   Bernardo de Souza      : ESD, SOC TD-DFT
   Georgi Stoychev        : AutoAux, RI-MP2 NMR, DLPNO-MP2 response
   Willem Van den Heuvel  : Paramagnetic NMR
   Boris Wezisla          : Elementary symmetry handling
   Frank Wennmohs         : Technical directorship


 We gratefully acknowledge several colleagues who have allowed us to
 interface, adapt or use parts of their codes:
   Stefan Grimme, W. Hujo, H. Kruse, P. Pracht,  : VdW corrections, initial TS optimization,
                  C. Bannwarth, S. Ehlert          DFT functionals, gCP, sTDA/sTD-DF
   Ed Valeev, F. Pavosevic, A. Kumar             : LibInt (2-el integral package), F12 methods
   Garnet Chan, S. Sharma, J. Yang, R. Olivares  : DMRG
   Ulf Ekstrom                                   : XCFun DFT Library
   Mihaly Kallay                                 : mrcc  (arbitrary order and MRCC methods)
   Jiri Pittner, Ondrej Demel                    : Mk-CCSD
   Frank Weinhold                                : gennbo (NPA and NBO analysis)
   Christopher J. Cramer and Donald G. Truhlar   : smd solvation model
   Lars Goerigk                                  : TD-DFT with DH, B97 family of functionals
   V. Asgeirsson, H. Jonsson                     : NEB implementation
   FAccTs GmbH                                   : IRC, NEB, NEB-TS, DLPNO-Multilevel, CI-OPT
                                                   MM, QMMM, 2- and 3-layer-ONIOM, Crystal-QMMM,
                                                   LR-CPCM, SF, NACMEs, symmetry and pop. for TD-DFT,
                                                   nearIR, NL-DFT gradient (VV10), updates on ESD,
                                                   ML-optimized integration grids
   S Lehtola, MJT Oliveira, MAL Marques          : LibXC Library
   Liviu Ungur et al                             : ANISO software


 Your calculation uses the libint2 library for the computation of 2-el integrals
 For citations please refer to: http://libint.valeyev.net

 Your ORCA version has been built with support for libXC version: 5.1.0
 For citations please refer to: https://tddft.org/programs/libxc/

 This ORCA versions uses:
   CBLAS   interface :  Fast vector & matrix operations
   LAPACKE interface :  Fast linear algebra routines
   SCALAPACK package :  Parallel linear algebra routines
   Shared memory     :  Shared parallel matrices
   BLAS/LAPACK       :  OpenBLAS 0.3.15  USE64BITINT DYNAMIC_ARCH NO_AFFINITY SkylakeX SINGLE_THREADED
        Core in use  :  SkylakeX
   Copyright (c) 2011-2014, The OpenBLAS Project


Your calculation utilizes the DFT-NL dispersion correction.
Cite in your paper:
Vydrov, O. A.; Van Voorhis, T. J. Chem. Phys. 2010, 133, 244103
Hujo, W.; Grimme, S. J. Chem. Theory Comput. 2011, 7, 3866 
   

Your calculation utilizes the SMD solvation module
Please cite in your paper:
A.V. Marenich, C.J. Cramer, D.G. Truhlar J. Phys. Chem. B, 113, (2009), 6378 

================================================================================

----- Orbital basis set information -----
Your calculation utilizes the basis: def2-TZVP
   F. Weigend and R. Ahlrichs, Phys. Chem. Chem. Phys. 7, 3297 (2005).

----- AuxJ basis set information -----
Your calculation utilizes the auxiliary basis: def2/J
   F. Weigend, Phys. Chem. Chem. Phys. 8, 1057 (2006).

================================================================================
                                        WARNINGS
                       Please study these warnings very carefully!
================================================================================


WARNING: Geometry Optimization
  ===> : Switching off AutoStart
         For restart on a previous wavefunction, please use MOREAD

WARNING: Analytic gradients for DFT-NL dispersion can only be done using the self-consistent method,
  ===>   Switching to SCNL

WARNING: Self-consistent DFT-NL dispersion not compatible with AutoTRAH.
  ===>   Switching AutoTRAH off


INFO   : the flag for use of the SHARK integral package has been found!

================================================================================
                                       INPUT FILE
================================================================================
NAME = /burg/berkelbach/users/eav2136/projects/peroxide_dissociation/05_range_separated_functional/wb97x-v-peroxide-dmf/wb97x-v-peroxide-dmf_opt.inp
|  1> ! UKS wB97X-V def2-TZVP TIGHTSCF Opt CPCM PAL8
|  2> %maxcore 5000
|  3> %cpcm
|  4> smd true
|  5> SMDsolvent "DMF"
|  6> end
|  7> * xyz 0 1
|  8>  C -0.07425707479814 6.45007760366319 3.54636897867849
|  9>  S 1.48979584793712 6.08048225687873 2.75598260255209
| 10>  C 1.14936654141856 4.63662227087222 1.83369205968326
| 11>  C -0.09136557109480 4.00305286554088 1.79338352444578
| 12>  C -0.25826928718407 2.84269542505768 1.05936282240646
| 13>  C 0.80050967676942 2.30271389692801 0.33923873907232
| 14>  C 2.02875697338567 2.96040825022008 0.34201900047512
| 15>  C 2.20764771123846 4.10330343094754 1.09121055149825
| 16>  C 0.66254428710301 1.09941809961861 -0.50690159852297
| 17>  O 0.00000000000000 0.00000000000000 0.00000000000000
| 18>  O 1.06713866538631 0.98717129960580 -1.62357736506780
| 19>  O 0.00000000000000 0.00000000000000 1.41527284498687
| 20>  C -1.27388770944479 0.00000000000000 1.91590645535523
| 21>  C -1.22211457253867 0.06642777988277 3.38831477989974
| 22>  O -2.25742922897412 -0.02585779042736 1.23875652957256
| 23>  C -2.41543940252313 -0.12289611375011 4.08595252694906
| 24>  C -2.44195923478874 -0.03437680070658 5.45887710053507
| 25>  C -1.27275068522395 0.25496212808386 6.17298493884884
| 26>  C -0.08177795586127 0.45060655108151 5.47518008098465
| 27>  C -0.05890441770979 0.35440376081578 4.09544628781756
| 28>  S -1.42666733932306 0.34986111841343 7.90788531117200
| 29>  C 0.24316058065577 0.68495422113854 8.46194522255982
| 30>  H 0.10416325535368 7.34607684664392 4.14087383255362
| 31>  H -0.38882275224257 5.64387294862163 4.21002028523424
| 32>  H -0.85323854703301 6.66443357654391 2.81385647784552
| 33>  H -0.93700004363157 4.40513362395569 2.33421606140266
| 34>  H -1.23507439683237 2.37497021944690 1.02749021968162
| 35>  H 2.84544686618639 2.55882587909200 -0.24576673820719
| 36>  H 3.17295340310622 4.59670965109571 1.10248346369500
| 37>  H -3.31769085302541 -0.33900022625314 3.52707230389961
| 38>  H -3.37188538809726 -0.18808364875198 5.99464715790180
| 39>  H 0.83479761044422 0.68252071425859 5.99988733430662
| 40>  H 0.87046926144621 0.51883617942438 3.56602510045047
| 41>  H 0.18454114424639 0.73729393679500 9.54909076814075
| 42>  H 0.60864534290486 1.64029462399245 8.08374213903351
| 43>  H 0.92507514742305 -0.11949528816653 8.18458994466104
| 44> *
| 45> 
| 46>                          ****END OF INPUT****
================================================================================

                       *****************************
                       * Geometry Optimization Run *
                       *****************************

Geometry optimization settings:
Update method            Update   .... BFGS
Choice of coordinates    CoordSys .... Z-matrix Internals
Initial Hessian          InHess   .... Almoef's Model

Convergence Tolerances:
Energy Change            TolE     ....  5.0000e-06 Eh
Max. Gradient            TolMAXG  ....  3.0000e-04 Eh/bohr
RMS Gradient             TolRMSG  ....  1.0000e-04 Eh/bohr
Max. Displacement        TolMAXD  ....  4.0000e-03 bohr
RMS Displacement         TolRMSD  ....  2.0000e-03 bohr
Strict Convergence                ....  False
------------------------------------------------------------------------------
                        ORCA OPTIMIZATION COORDINATE SETUP
------------------------------------------------------------------------------

The optimization will be done in new redundant internal coordinates
Making redundant internal coordinates   ...  (new redundants) done
Evaluating the initial hessian          ...  (Almloef) done
Evaluating the coordinates              ...  done
Calculating the B-matrix                .... done
Calculating the G-matrix                .... done
Diagonalizing the G-matrix              .... done
Small eigenvalue found = 6.813e-04
Small eigenvalue found = 1.847e-03
Small eigenvalue found = 4.132e-03
Small eigenvalue found = 1.197e-02
Small eigenvalue found = 1.299e-02
Small eigenvalue found = 2.647e-02
The first mode is                       ....   64
The number of degrees of freedom        ....  102

    -----------------------------------------------------------------
                    Redundant Internal Coordinates


    -----------------------------------------------------------------
         Definition                    Initial Value    Approx d2E/dq
    -----------------------------------------------------------------
      1. B(S   1,C   0)                  1.7910         0.386175   
      2. B(C   2,S   1)                  1.7468         0.454240   
      3. B(C   3,C   2)                  1.3937         0.616320   
      4. B(C   4,C   3)                  1.3831         0.640745   
      5. B(C   5,C   4)                  1.3897         0.625563   
      6. B(C   6,C   5)                  1.3933         0.617369   
      7. B(C   7,C   2)                  1.3985         0.605696   
      8. B(C   7,C   6)                  1.3782         0.652421   
      9. B(C   8,C   5)                  1.4775         0.453096   
     10. B(O   9,C   8)                  1.3801         0.580356   
     11. B(O  10,C   8)                  1.1930         1.153901   
     12. B(O  11,O   9)                  1.4153         0.456763   
     13. B(C  12,O  11)                  1.3687         0.605075   
     14. B(C  13,C  12)                  1.4748         0.457532   
     15. B(O  14,C  12)                  1.1944         1.148067   
     16. B(C  15,C  13)                  1.3952         0.612988   
     17. B(C  16,C  15)                  1.3760         0.657696   
     18. B(C  17,C  16)                  1.4003         0.601695   
     19. B(C  18,C  17)                  1.3941         0.615367   
     20. B(C  19,C  18)                  1.3833         0.640430   
     21. B(C  19,C  13)                  1.3914         0.621567   
     22. B(S  20,C  17)                  1.7443         0.458402   
     23. B(C  21,S  20)                  1.7910         0.386167   
     24. B(H  22,C   0)                  1.0900         0.360109   
     25. B(H  23,C   0)                  1.0906         0.359342   
     26. B(H  24,C   0)                  1.0906         0.359351   
     27. B(H  25,C   3)                  1.0813         0.371759   
     28. B(H  26,C   4)                  1.0835         0.368828   
     29. B(H  27,C   6)                  1.0834         0.368946   
     30. B(H  28,C   7)                  1.0842         0.367916   
     31. B(H  29,C  15)                  1.0831         0.369344   
     32. B(H  30,C  16)                  1.0842         0.367887   
     33. B(H  31,C  18)                  1.0813         0.371793   
     34. B(H  32,C  19)                  1.0822         0.370628   
     35. B(H  33,C  21)                  1.0900         0.360124   
     36. B(H  34,C  21)                  1.0905         0.359378   
     37. B(H  35,C  21)                  1.0904         0.359511   
     38. A(H  22,C   0,H  23)          108.8436         0.290744   
     39. A(H  22,C   0,H  24)          108.7656         0.290746   
     40. A(S   1,C   0,H  24)          111.5879         0.342618   
     41. A(S   1,C   0,H  23)          111.5859         0.342616   
     42. A(H  23,C   0,H  24)          110.3658         0.290648   
     43. A(S   1,C   0,H  22)          105.5091         0.342738   
     44. A(C   0,S   1,C   2)          103.4970         0.419917   
     45. A(C   3,C   2,C   7)          119.0102         0.431786   
     46. A(S   1,C   2,C   3)          124.3692         0.432719   
     47. A(S   1,C   2,C   7)          116.6202         0.431369   
     48. A(C   2,C   3,C   4)          120.2744         0.436178   
     49. A(C   4,C   3,H  25)          118.8821         0.356807   
     50. A(C   2,C   3,H  25)          120.8433         0.354461   
     51. A(C   5,C   4,H  26)          120.2581         0.354880   
     52. A(C   3,C   4,H  26)          119.1145         0.356327   
     53. A(C   3,C   4,C   5)          120.6005         0.437350   
     54. A(C   4,C   5,C   6)          119.1567         0.434432   
     55. A(C   4,C   5,C   8)          122.8259         0.411072   
     56. A(C   6,C   5,C   8)          117.8994         0.410112   
     57. A(C   7,C   6,H  27)          120.2952         0.357442   
     58. A(C   5,C   6,H  27)          119.2412         0.354107   
     59. A(C   5,C   6,C   7)          120.4618         0.437734   
     60. A(C   6,C   7,H  28)          119.9087         0.357272   
     61. A(C   2,C   7,H  28)          119.6508         0.352797   
     62. A(C   2,C   7,C   6)          120.4398         0.436231   
     63. A(O   9,C   8,O  10)          115.5727         0.473849   
     64. A(C   5,C   8,O  10)          125.5219         0.455899   
     65. A(C   5,C   8,O   9)          118.8999         0.403044   
     66. A(C   8,O   9,O  11)          111.5490         0.398410   
     67. A(O   9,O  11,C  12)          111.4547         0.401345   
     68. A(C  13,C  12,O  14)          126.5770         0.456288   
     69. A(O  11,C  12,O  14)          123.9896         0.477054   
     70. A(O  11,C  12,C  13)          109.4203         0.406723   
     71. A(C  12,C  13,C  19)          123.0966         0.411315   
     72. A(C  15,C  13,C  19)          119.2748         0.433376   
     73. A(C  12,C  13,C  15)          117.5858         0.410303   
     74. A(C  16,C  15,H  29)          120.7715         0.357997   
     75. A(C  13,C  15,H  29)          118.7871         0.353745   
     76. A(C  13,C  15,C  16)          120.4413         0.437808   
     77. A(C  17,C  16,H  30)          119.5691         0.352397   
     78. A(C  15,C  16,H  30)          120.0309         0.357757   
     79. A(C  15,C  16,C  17)          120.3999         0.436343   
     80. A(C  16,C  17,S  20)          116.4104         0.431562   
     81. A(C  18,C  17,S  20)          124.4423         0.433309   
     82. A(C  16,C  17,C  18)          119.1469         0.431152   
     83. A(C  17,C  18,C  19)          120.2393         0.436018   
     84. A(C  19,C  18,H  31)          119.0068         0.356782   
     85. A(C  17,C  18,H  31)          120.7535         0.354374   
     86. A(C  13,C  19,C  18)          120.4962         0.436806   
     87. A(C  18,C  19,H  32)          119.4465         0.356592   
     88. A(C  13,C  19,H  32)          120.0518         0.354788   
     89. A(C  17,S  20,C  21)          103.6272         0.420599   
     90. A(H  34,C  21,H  35)          110.3939         0.290673   
     91. A(H  33,C  21,H  35)          108.8290         0.290768   
     92. A(S  20,C  21,H  35)          111.4899         0.342642   
     93. A(H  33,C  21,H  34)          108.7753         0.290751   
     94. A(S  20,C  21,H  34)          111.6593         0.342620   
     95. A(S  20,C  21,H  33)          105.5095         0.342739   
     96. D(C   2,S   1,C   0,H  22)    179.5234         0.003898   
     97. D(C   2,S   1,C   0,H  23)     61.4721         0.003898   
     98. D(C   2,S   1,C   0,H  24)    -62.5176         0.003898   
     99. D(C   3,C   2,S   1,C   0)      0.0768         0.004531   
    100. D(C   7,C   2,S   1,C   0)    179.8441         0.004531   
    101. D(C   4,C   3,C   2,C   7)      1.8479         0.026266   
    102. D(C   4,C   3,C   2,S   1)   -178.3900         0.026266   
    103. D(H  25,C   3,C   2,C   7)   -178.3097         0.026266   
    104. D(H  25,C   3,C   2,S   1)      1.4524         0.026266   
    105. D(H  26,C   4,C   3,H  25)      1.1825         0.028529   
    106. D(H  26,C   4,C   3,C   2)   -178.9720         0.028529   
    107. D(C   5,C   4,C   3,H  25)    179.3028         0.028529   
    108. D(C   5,C   4,C   3,C   2)     -0.8517         0.028529   
    109. D(C   6,C   5,C   4,H  26)    176.7603         0.027109   
    110. D(C   6,C   5,C   4,C   3)     -1.3385         0.027109   
    111. D(C   8,C   5,C   4,C   3)   -177.3042         0.027109   
    112. D(C   8,C   5,C   4,H  26)      0.7946         0.027109   
    113. D(H  27,C   6,C   5,C   8)     -1.7852         0.026361   
    114. D(H  27,C   6,C   5,C   4)   -177.9495         0.026361   
    115. D(C   7,C   6,C   5,C   8)    178.6982         0.026361   
    116. D(C   7,C   6,C   5,C   4)      2.5338         0.026361   
    117. D(H  28,C   7,C   6,H  27)     -0.7379         0.029652   
    118. D(H  28,C   7,C   6,C   5)    178.7736         0.029652   
    119. D(C   2,C   7,C   6,H  27)    178.9472         0.029652   
    120. D(C   2,C   7,C   6,C   5)     -1.5413         0.029652   
    121. D(H  28,C   7,C   2,C   3)    179.0287         0.025317   
    122. D(H  28,C   7,C   2,S   1)     -0.7516         0.025317   
    123. D(C   6,C   7,C   2,C   3)     -0.6572         0.025317   
    124. D(C   6,C   7,C   2,S   1)    179.5625         0.025317   
    125. D(O   9,C   8,C   5,C   6)    137.7156         0.013991   
    126. D(O   9,C   8,C   5,C   4)    -46.2708         0.013991   
    127. D(O  10,C   8,C   5,C   6)    -43.1749         0.013991   
    128. D(O  10,C   8,C   5,C   4)    132.8388         0.013991   
    129. D(O  11,O   9,C   8,O  10)    157.9229         0.024498   
    130. D(O  11,O   9,C   8,C   5)    -22.8806         0.024498   
    131. D(C  12,O  11,O   9,C   8)    121.0745         0.015467   
    132. D(O  14,C  12,O  11,O   9)      1.4962         0.026770   
    133. D(C  13,C  12,O  11,O   9)   -177.2626         0.026770   
    134. D(C  19,C  13,C  12,O  14)   -167.0428         0.014262   
    135. D(C  19,C  13,C  12,O  11)     11.6757         0.014262   
    136. D(C  15,C  13,C  12,O  14)     10.5550         0.014262   
    137. D(C  15,C  13,C  12,O  11)   -170.7265         0.014262   
    138. D(H  29,C  15,C  13,C  19)    179.5255         0.025966   
    139. D(H  29,C  15,C  13,C  12)      1.8326         0.025966   
    140. D(C  16,C  15,C  13,C  19)     -0.4006         0.025966   
    141. D(C  16,C  15,C  13,C  12)   -178.0935         0.025966   
    142. D(H  30,C  16,C  15,H  29)      0.4119         0.030169   
    143. D(H  30,C  16,C  15,C  13)   -179.6635         0.030169   
    144. D(C  17,C  16,C  15,H  29)   -179.5362         0.030169   
    145. D(C  17,C  16,C  15,C  13)      0.3884         0.030169   
    146. D(S  20,C  17,C  16,H  30)     -0.2280         0.024966   
    147. D(S  20,C  17,C  16,C  15)    179.7203         0.024966   
    148. D(C  18,C  17,C  16,H  30)    179.9814         0.024966   
    149. D(C  18,C  17,C  16,C  15)     -0.0703         0.024966   
    150. D(H  31,C  18,C  17,S  20)     -0.2266         0.026180   
    151. D(H  31,C  18,C  17,C  16)    179.5460         0.026180   
    152. D(C  19,C  18,C  17,S  20)    179.9944         0.026180   
    153. D(C  19,C  18,C  17,C  16)     -0.2330         0.026180   
    154. D(C  13,C  19,C  18,C  17)      0.2195         0.028499   
    155. D(H  32,C  19,C  13,C  15)   -179.0463         0.026742   
    156. D(H  32,C  19,C  13,C  12)     -1.4873         0.026742   
    157. D(C  18,C  19,C  13,C  15)      0.0962         0.026742   
    158. D(C  18,C  19,C  13,C  12)    177.6553         0.026742   
    159. D(H  32,C  19,C  18,H  31)     -0.4157         0.028499   
    160. D(H  32,C  19,C  18,C  17)    179.3672         0.028499   
    161. D(C  13,C  19,C  18,H  31)   -179.5634         0.028499   
    162. D(C  21,S  20,C  17,C  18)     -1.6462         0.004589   
    163. D(C  21,S  20,C  17,C  16)    178.5756         0.004589   
    164. D(H  35,C  21,S  20,C  17)    -61.2749         0.003898   
    165. D(H  34,C  21,S  20,C  17)     62.7331         0.003898   
    166. D(H  33,C  21,S  20,C  17)   -179.2586         0.003898   
    -----------------------------------------------------------------

Number of atoms                         .... 36
Number of degrees of freedom            .... 166

         *************************************************************
         *                GEOMETRY OPTIMIZATION CYCLE   1            *
         *************************************************************
---------------------------------
CARTESIAN COORDINATES (ANGSTROEM)
---------------------------------
  C     -0.074257    6.450078    3.546369
  S      1.489796    6.080482    2.755983
  C      1.149367    4.636622    1.833692
  C     -0.091366    4.003053    1.793384
  C     -0.258269    2.842695    1.059363
  C      0.800510    2.302714    0.339239
  C      2.028757    2.960408    0.342019
  C      2.207648    4.103303    1.091211
  C      0.662544    1.099418   -0.506902
  O      0.000000    0.000000    0.000000
  O      1.067139    0.987171   -1.623577
  O      0.000000    0.000000    1.415273
  C     -1.273888    0.000000    1.915906
  C     -1.222115    0.066428    3.388315
  O     -2.257429   -0.025858    1.238757
  C     -2.415439   -0.122896    4.085953
  C     -2.441959   -0.034377    5.458877
  C     -1.272751    0.254962    6.172985
  C     -0.081778    0.450607    5.475180
  C     -0.058904    0.354404    4.095446
  S     -1.426667    0.349861    7.907885
  C      0.243161    0.684954    8.461945
  H      0.104163    7.346077    4.140874
  H     -0.388823    5.643873    4.210020
  H     -0.853239    6.664434    2.813856
  H     -0.937000    4.405134    2.334216
  H     -1.235074    2.374970    1.027490
  H      2.845447    2.558826   -0.245767
  H      3.172953    4.596710    1.102483
  H     -3.317691   -0.339000    3.527072
  H     -3.371885   -0.188084    5.994647
  H      0.834798    0.682521    5.999887
  H      0.870469    0.518836    3.566025
  H      0.184541    0.737294    9.549091
  H      0.608645    1.640295    8.083742
  H      0.925075   -0.119495    8.184590

----------------------------
CARTESIAN COORDINATES (A.U.)
----------------------------
  NO LB      ZA    FRAG     MASS         X           Y           Z
   0 C     6.0000    0    12.011   -0.140326   12.188880    6.701666
   1 S    16.0000    0    32.060    2.815306   11.490446    5.208052
   2 C     6.0000    0    12.011    2.171988    8.761946    3.465176
   3 C     6.0000    0    12.011   -0.172656    7.564674    3.389004
   4 C     6.0000    0    12.011   -0.488058    5.371916    2.001906
   5 C     6.0000    0    12.011    1.512744    4.351499    0.641068
   6 C     6.0000    0    12.011    3.833795    5.594361    0.646322
   7 C     6.0000    0    12.011    4.171850    7.754120    2.062089
   8 C     6.0000    0    12.011    1.252027    2.077599   -0.957905
   9 O     8.0000    0    15.999    0.000000    0.000000    0.000000
  10 O     8.0000    0    15.999    2.016600    1.865483   -3.068117
  11 O     8.0000    0    15.999    0.000000    0.000000    2.674478
  12 C     6.0000    0    12.011   -2.407299    0.000000    3.620538
  13 C     6.0000    0    12.011   -2.309462    0.125530    6.402987
  14 O     8.0000    0    15.999   -4.265923   -0.048864    2.340911
  15 C     6.0000    0    12.011   -4.564519   -0.232240    7.721331
  16 C     6.0000    0    12.011   -4.614634   -0.064963   10.315783
  17 C     6.0000    0    12.011   -2.405150    0.481809   11.665251
  18 C     6.0000    0    12.011   -0.154538    0.851523   10.346591
  19 C     6.0000    0    12.011   -0.111313    0.669726    7.739272
  20 S    16.0000    0    32.060   -2.696011    0.661142   14.943738
  21 C     6.0000    0    12.011    0.459507    1.294376   15.990759
  22 H     1.0000    0     1.008    0.196840   13.882073    7.825117
  23 H     1.0000    0     1.008   -0.734769   10.665374    7.955785
  24 H     1.0000    0     1.008   -1.612387   12.593954    5.317418
  25 H     1.0000    0     1.008   -1.770673    8.324496    4.411029
  26 H     1.0000    0     1.008   -2.333952    4.488043    1.941675
  27 H     1.0000    0     1.008    5.377115    4.835480   -0.464432
  28 H     1.0000    0     1.008    5.996013    8.686522    2.083392
  29 H     1.0000    0     1.008   -6.269527   -0.640618    6.665201
  30 H     1.0000    0     1.008   -6.371940   -0.355427   11.328241
  31 H     1.0000    0     1.008    1.577539    1.289777   11.338144
  32 H     1.0000    0     1.008    1.644949    0.980458    6.738811
  33 H     1.0000    0     1.008    0.348732    1.393284   18.045166
  34 H     1.0000    0     1.008    1.150173    3.099708   15.276059
  35 H     1.0000    0     1.008    1.748139   -0.225813   15.466634

--------------------------------
INTERNAL COORDINATES (ANGSTROEM)
--------------------------------
 C      0   0   0     0.000000000000     0.00000000     0.00000000
 S      1   0   0     1.790969818017     0.00000000     0.00000000
 C      2   1   0     1.746780929995   103.49703222     0.00000000
 C      3   2   1     1.393718459520   124.36918170     0.07682297
 C      4   3   2     1.383138688329   120.27439762   181.60997218
 C      5   4   3     1.389666017657   120.60050203   359.14829865
 C      6   5   4     1.393255545064   119.15672375   358.66151732
 C      7   6   5     1.378223229504   120.46180539     2.53383799
 C      6   5   4     1.477466986255   122.82593719   182.69580816
 O      9   6   5     1.380084896203   118.89987975   313.72924568
 O      9   6   5     1.193004913083   125.52191253   132.83876530
 O     10   9   6     1.415272844987   111.54903739   337.11941713
 C     12  10   9     1.368730765383   111.45466078   121.07450275
 C     13  12  10     1.474815033092   109.42032141   182.73741157
 O     13  12  10     1.194384598005   123.98959865     1.49620750
 C     14  13  12     1.395193933712   117.58575536   189.27346256
 C     16  14  13     1.376030833609   120.44129595   181.90648253
 C     17  16  14     1.400255566970   120.39992501     0.38844050
 C     18  17  16     1.394139305089   119.14686446   359.92970699
 C     19  18  17     1.383272755320   120.23932774   359.76697987
 S     18  17  16     1.744297983907   116.41043178   179.72028820
 C     21  18  17     1.790976006328   103.62720090   178.57561880
 H      1   2   3     1.089992880213   105.50910599   179.52342869
 H      1   2   3     1.090573504139   111.58592171    61.47211732
 H      1   2   3     1.090566449636   111.58785041   297.48242808
 H      4   3   2     1.081326236832   120.84329981     1.45240478
 H      5   4   3     1.083480942612   119.11451180   181.02803207
 H      7   6   5     1.083394137146   119.24119758   182.05045369
 H      8   7   6     1.084154903776   119.90872766   178.77361985
 H     16  14  13     1.083100074365   118.78711222     1.83264212
 H     17  16  14     1.084176184997   120.03093279   180.33653865
 H     19  18  17     1.081301368500   120.75351253   179.54600540
 H     20  19  18     1.082155372130   119.44648422   179.36717552
 H     22  21  18     1.089982165651   105.50954915   180.74135630
 H     22  21  18     1.090546637769   111.65925285    62.73308778
 H     22  21  18     1.090445981958   111.48990618   298.72507539

---------------------------
INTERNAL COORDINATES (A.U.)
---------------------------
 C      0   0   0     0.000000000000     0.00000000     0.00000000
 S      1   0   0     3.384442470171     0.00000000     0.00000000
 C      2   1   0     3.300937573646   103.49703222     0.00000000
 C      3   2   1     2.633746196283   124.36918170     0.07682297
 C      4   3   2     2.613753326172   120.27439762   181.60997218
 C      5   4   3     2.626088190988   120.60050203   359.14829865
 C      6   5   4     2.632871414738   119.15672375   358.66151732
 C      7   6   5     2.604464455171   120.46180539     2.53383799
 C      6   5   4     2.792007975932   122.82593719   182.69580816
 O      9   6   5     2.607982495384   118.89987975   313.72924568
 O      9   6   5     2.254452562149   125.52191253   132.83876530
 O     10   9   6     2.674478081801   111.54903739   337.11941713
 C     12  10   9     2.586526297646   111.45466078   121.07450275
 C     13  12  10     2.786996510733   109.42032141   182.73741157
 O     13  12  10     2.257059788803   123.98959865     1.49620750
 C     14  13  12     2.636534438423   117.58575536   189.27346256
 C     16  14  13     2.600321427352   120.44129595   181.90648253
 C     17  16  14     2.646099539072   120.39992501     0.38844050
 C     18  17  16     2.634541479154   119.14686446   359.92970699
 C     19  18  17     2.614006676069   120.23932774   359.76697987
 S     18  17  16     3.296245485535   116.41043178   179.72028820
 C     21  18  17     3.384454164384   103.62720090   178.57561880
 H      1   2   3     2.059788031526   105.50910599   179.52342869
 H      1   2   3     2.060885251733   111.58592171    61.47211732
 H      1   2   3     2.060871920655   111.58785041   297.48242808
 H      4   3   2     2.043410449036   120.84329981     1.45240478
 H      5   4   3     2.047482252859   119.11451180   181.02803207
 H      7   6   5     2.047318214302   119.24119758   182.05045369
 H      8   7   6     2.048755854885   119.90872766   178.77361985
 H     16  14  13     2.046762516180   118.78711222     1.83264212
 H     17  16  14     2.048796070563   120.03093279   180.33653865
 H     19  18  17     2.043363454698   120.75351253   179.54600540
 H     20  19  18     2.044977287678   119.44648422   179.36717552
 H     22  21  18     2.059767783938   105.50954915   180.74135630
 H     22  21  18     2.060834481653   111.65925285    62.73308778
 H     22  21  18     2.060644269736   111.48990618   298.72507539

---------------------
BASIS SET INFORMATION
---------------------
There are 4 groups of distinct atoms

 Group   1 Type C   : 11s6p2d1f contracted to 5s3p2d1f pattern {62111/411/11/1}
 Group   2 Type S   : 14s9p3d1f contracted to 5s5p2d1f pattern {73211/51111/21/1}
 Group   3 Type O   : 11s6p2d1f contracted to 5s3p2d1f pattern {62111/411/11/1}
 Group   4 Type H   : 5s1p contracted to 3s1p pattern {311/1}

Atom   0C    basis set group =>   1
Atom   1S    basis set group =>   2
Atom   2C    basis set group =>   1
Atom   3C    basis set group =>   1
Atom   4C    basis set group =>   1
Atom   5C    basis set group =>   1
Atom   6C    basis set group =>   1
Atom   7C    basis set group =>   1
Atom   8C    basis set group =>   1
Atom   9O    basis set group =>   3
Atom  10O    basis set group =>   3
Atom  11O    basis set group =>   3
Atom  12C    basis set group =>   1
Atom  13C    basis set group =>   1
Atom  14O    basis set group =>   3
Atom  15C    basis set group =>   1
Atom  16C    basis set group =>   1
Atom  17C    basis set group =>   1
Atom  18C    basis set group =>   1
Atom  19C    basis set group =>   1
Atom  20S    basis set group =>   2
Atom  21C    basis set group =>   1
Atom  22H    basis set group =>   4
Atom  23H    basis set group =>   4
Atom  24H    basis set group =>   4
Atom  25H    basis set group =>   4
Atom  26H    basis set group =>   4
Atom  27H    basis set group =>   4
Atom  28H    basis set group =>   4
Atom  29H    basis set group =>   4
Atom  30H    basis set group =>   4
Atom  31H    basis set group =>   4
Atom  32H    basis set group =>   4
Atom  33H    basis set group =>   4
Atom  34H    basis set group =>   4
Atom  35H    basis set group =>   4
---------------------------------
AUXILIARY/J BASIS SET INFORMATION
---------------------------------
There are 4 groups of distinct atoms

 Group   1 Type C   : 12s5p4d2f1g contracted to 6s4p3d1f1g pattern {711111/2111/211/2/1}
 Group   2 Type S   : 14s5p5d2f1g contracted to 8s4p3d1f1g pattern {71111111/2111/311/2/1}
 Group   3 Type O   : 12s5p4d2f1g contracted to 6s4p3d1f1g pattern {711111/2111/211/2/1}
 Group   4 Type H   : 5s2p1d contracted to 3s1p1d pattern {311/2/1}

Atom   0C    basis set group =>   1
Atom   1S    basis set group =>   2
Atom   2C    basis set group =>   1
Atom   3C    basis set group =>   1
Atom   4C    basis set group =>   1
Atom   5C    basis set group =>   1
Atom   6C    basis set group =>   1
Atom   7C    basis set group =>   1
Atom   8C    basis set group =>   1
Atom   9O    basis set group =>   3
Atom  10O    basis set group =>   3
Atom  11O    basis set group =>   3
Atom  12C    basis set group =>   1
Atom  13C    basis set group =>   1
Atom  14O    basis set group =>   3
Atom  15C    basis set group =>   1
Atom  16C    basis set group =>   1
Atom  17C    basis set group =>   1
Atom  18C    basis set group =>   1
Atom  19C    basis set group =>   1
Atom  20S    basis set group =>   2
Atom  21C    basis set group =>   1
Atom  22H    basis set group =>   4
Atom  23H    basis set group =>   4
Atom  24H    basis set group =>   4
Atom  25H    basis set group =>   4
Atom  26H    basis set group =>   4
Atom  27H    basis set group =>   4
Atom  28H    basis set group =>   4
Atom  29H    basis set group =>   4
Atom  30H    basis set group =>   4
Atom  31H    basis set group =>   4
Atom  32H    basis set group =>   4
Atom  33H    basis set group =>   4
Atom  34H    basis set group =>   4
Atom  35H    basis set group =>   4


           ************************************************************
           *        Program running with 8 parallel MPI-processes     *
           *              working on a common directory               *
           ************************************************************
------------------------------------------------------------------------------
                           ORCA GTO INTEGRAL CALCULATION
                           -- RI-GTO INTEGRALS CHOSEN --
------------------------------------------------------------------------------
------------------------------------------------------------------------------
                   ___                                                        
                  /   \      - P O W E R E D   B Y -                         
                 /     \                                                     
                 |  |  |   _    _      __       _____    __    __             
                 |  |  |  | |  | |    /  \     |  _  \  |  |  /  |          
                  \  \/   | |  | |   /    \    | | | |  |  | /  /          
                 / \  \   | |__| |  /  /\  \   | |_| |  |  |/  /          
                |  |  |   |  __  | /  /__\  \  |    /   |      \           
                |  |  |   | |  | | |   __   |  |    \   |  |\   \          
                \     /   | |  | | |  |  |  |  | |\  \  |  | \   \       
                 \___/    |_|  |_| |__|  |__|  |_| \__\ |__|  \__/        
                                                                              
                      - O R C A' S   B I G   F R I E N D -                    
                                      &                                       
                       - I N T E G R A L  F E E D E R -                       
                                                                              
 v1 FN, 2020, v2 2021                                                         
------------------------------------------------------------------------------


Reading SHARK input file /burg/berkelbach/users/eav2136/projects/peroxide_dissociation/05_range_separated_functional/wb97x-v-peroxide-dmf/wb97x-v-peroxide-dmf_opt.SHARKINP.tmp ... ok
----------------------
SHARK INTEGRAL PACKAGE
----------------------

Number of atoms                             ...     36
Number of basis functions                   ...    778
Number of shells                            ...    302
Maximum angular momentum                    ...      3
Integral batch strategy                     ... SHARK/LIBINT Hybrid
RI-J (if used) integral strategy            ... SPLIT-RIJ (Revised 2003 algorithm where possible)
Printlevel                                  ...      1
Contraction scheme used                     ... SEGMENTED contraction
Coulomb Range Separation                    ... NOT USED
Exchange Range Separation                   ... Long Range
   Mu parameter                             ...  0.300000
   Scaling (regular/separated)              ...  0.167000  0.833000
Finite Nucleus Model                        ... NOT USED
Auxiliary Coulomb fitting basis             ... AVAILABLE
   # of basis functions in Aux-J            ...   1236
   # of shells in Aux-J                     ...    404
   Maximum angular momentum in Aux-J        ...      4
Auxiliary J/K fitting basis                 ... NOT available
Auxiliary Correlation fitting basis         ... NOT available
Auxiliary 'external' fitting basis          ... NOT available
Integral threshold                          ...     2.500000e-11
Primitive cut-off                           ...     2.500000e-12
Primitive pair pre-selection threshold      ...     2.500000e-12

Calculating pre-screening integrals         ... done (  0.1 sec) Dimension = 302
Organizing shell pair data                  ... done (  0.8 sec)
Shell pair information
Total number of shell pairs                 ...     45753
Shell pairs after pre-screening             ...     30707
Total number of primitive shell pairs       ...    145545
Primitive shell pairs kept                  ...     63502
          la=0 lb=0:   7523 shell pairs
          la=1 lb=0:   8937 shell pairs
          la=1 lb=1:   2674 shell pairs
          la=2 lb=0:   4331 shell pairs
          la=2 lb=1:   2602 shell pairs
          la=2 lb=2:    662 shell pairs
          la=3 lb=0:   2019 shell pairs
          la=3 lb=1:   1229 shell pairs
          la=3 lb=2:    589 shell pairs
          la=3 lb=3:    141 shell pairs

Calculating one electron integrals          ... done (  0.1 sec)
Calculating RI/J V-Matrix + Cholesky decomp.... done (  0.1 sec)
Calculating Nuclear repulsion               ... done (  0.0 sec) ENN=   1970.142246923818 Eh

SHARK setup successfully completed in   2.7 seconds

Maximum memory used throughout the entire GTOINT-calculation: 49.0 MB


           ************************************************************
           *        Program running with 8 parallel MPI-processes     *
           *              working on a common directory               *
           ************************************************************
-------------------------------------------------------------------------------
                                 ORCA SCF
-------------------------------------------------------------------------------

------------
SCF SETTINGS
------------
Hamiltonian:
 Density Functional     Method          .... DFT(GTOs)
 Exchange Functional    Exchange        .... WB97X-V
 Correlation Functional Correlation     .... WB97X-V
 Gradients option       PostSCFGGA      .... off
 Hybrid DFT is turned on
   Fraction HF Exchange ScalHFX         ....  0.167000
   Scaling of DF-GGA-X  ScalDFX         ....  0.000000
   Scaling of DF-GGA-C  ScalDFC         ....  1.000000
   Scaling of DF-LDA-C  ScalLDAC        ....  1.000000
   Perturbative correction              ....  0.000000
   Density functional embedding theory  .... OFF
 Long-range corrected/Screened/Range-Separated Hybrid DFT is turned on
   Amount of maximum screened exact exchange              ....  0.833000
   Range separation parameter mu (erf(mu*r12)/r12)        ....  0.300000
   NL short-range parameter             ....  6.000000
   NL long-range parameter              ....  0.010000
 RI-approximation to the Coulomb term is turned on
   Number of AuxJ basis functions       .... 1236
   RIJ-COSX (HFX calculated with COS-X)).... on


General Settings:
 Integral files         IntName         .... /burg/berkelbach/users/eav2136/projects/peroxide_dissociation/05_range_separated_functional/wb97x-v-peroxide-dmf/wb97x-v-peroxide-dmf_opt
 Hartree-Fock type      HFTyp           .... UHF
 Total Charge           Charge          ....    0
 Multiplicity           Mult            ....    1
 Number of Electrons    NEL             ....  174
 Basis Dimension        Dim             ....  778
 Nuclear Repulsion      ENuc            ....   1970.1422469238 Eh

Convergence Acceleration:
 DIIS                   CNVDIIS         .... on
   Start iteration      DIISMaxIt       ....    12
   Startup error        DIISStart       ....  0.200000
   # of expansion vecs  DIISMaxEq       ....     5
   Bias factor          DIISBfac        ....   1.050
   Max. coefficient     DIISMaxC        ....  10.000
 Trust-Rad. Augm. Hess. CNVTRAH         .... off
 SOSCF                  CNVSOSCF        .... off
 Level Shifting         CNVShift        .... on
   Level shift para.    LevelShift      ....    0.2500
   Turn off err/grad.   ShiftErr        ....    0.0010
 Zerner damping         CNVZerner       .... off
 Static damping         CNVDamp         .... on
   Fraction old density DampFac         ....    0.7000
   Max. Damping (<1)    DampMax         ....    0.9800
   Min. Damping (>=0)   DampMin         ....    0.0000
   Turn off err/grad.   DampErr         ....    0.1000
 Fernandez-Rico         CNVRico         .... off

SCF Procedure:
 Maximum # iterations   MaxIter         ....   125
 SCF integral mode      SCFMode         .... Direct
   Integral package                     .... SHARK and LIBINT hybrid scheme
 Reset frequency        DirectResetFreq ....    20
 Integral Threshold     Thresh          ....  2.500e-11 Eh
 Primitive CutOff       TCut            ....  2.500e-12 Eh

Convergence Tolerance:
 Convergence Check Mode ConvCheckMode   .... Total+1el-Energy
 Convergence forced     ConvForced      .... 0
 Energy Change          TolE            ....  1.000e-08 Eh
 1-El. energy change                    ....  1.000e-05 Eh
 DIIS Error             TolErr          ....  5.000e-07


Diagonalization of the overlap matrix:
Smallest eigenvalue                        ... 6.410e-06
Time for diagonalization                   ...    0.103 sec
Threshold for overlap eigenvalues          ... 1.000e-08
Number of eigenvalues below threshold      ... 0
Time for construction of square roots      ...    0.059 sec
Total time needed                          ...    0.165 sec

Time for model grid setup =    0.274 sec

------------------------------
INITIAL GUESS: MODEL POTENTIAL
------------------------------
Loading Hartree-Fock densities                     ... done
Calculating cut-offs                               ... done
Initializing the effective Hamiltonian             ... done
Setting up the integral package (SHARK)            ... done
Starting the Coulomb interaction                   ... done (   0.5 sec)
Reading the grid                                   ... done
Mapping shells                                     ... done
Starting the XC term evaluation                    ... done (   0.5 sec)
  promolecular density results
     # of electrons  =    174.001529421
     EX              =   -117.622368577
     EC              =     -7.625477679
     EX+EC           =   -125.247846256
Transforming the Hamiltonian                       ... done (   0.1 sec)
Diagonalizing the Hamiltonian                      ... done (   0.1 sec)
Back transforming the eigenvectors                 ... done (   0.0 sec)
Now organizing SCF variables                       ... done
                      ------------------
                      INITIAL GUESS DONE (   1.4 sec)
                      ------------------
-------------------
DFT GRID GENERATION
-------------------

General Integration Accuracy     IntAcc      ... 4.388
Radial Grid Type                 RadialGrid  ... OptM3 with GC (2021)
Angular Grid (max. ang.)         AngularGrid ... 4 (Lebedev-302)
Angular grid pruning method      GridPruning ... 4 (adaptive)
Weight generation scheme         WeightScheme... Becke
Basis function cutoff            BFCut       ... 1.0000e-11
Integration weight cutoff        WCut        ... 1.0000e-14
Angular grids for H and He will be reduced by one unit
Partially contracted basis set               ... off
Rotationally invariant grid construction     ... off

Total number of grid points                  ...   179155
Total number of batches                      ...     2817
Average number of points per batch           ...       63
Average number of grid points per atom       ...     4977

------------------
NL GRID GENERATION
------------------

General Integration Accuracy     IntAcc      ... 4.004
Radial Grid Type                 RadialGrid  ... OptM3 with GC (2021)
Angular Grid (max. ang.)         AngularGrid ... 2 (Lebedev-110)
Angular grid pruning method      GridPruning ... 4 (adaptive)
Weight generation scheme         WeightScheme... Becke
Basis function cutoff            BFCut       ... 1.0000e-10
Integration weight cutoff        WCut        ... 1.0000e-14
Angular grids for H and He will be reduced by one unit
Partially contracted basis set               ... off
Rotationally invariant grid construction     ... off

Total number of grid points                  ...    57317
Total number of batches                      ...      916
Average number of points per batch           ...       62
Average number of grid points per atom       ...     1592
Time for grid setup =    1.747 sec

--------------------
COSX GRID GENERATION
--------------------

GRIDX 1
-------
General Integration Accuracy     IntAcc      ... 3.816
Radial Grid Type                 RadialGrid  ... OptM3 with GC (2021)
Angular Grid (max. ang.)         AngularGrid ... 1 (Lebedev-50)
Angular grid pruning method      GridPruning ... 4 (adaptive)
Weight generation scheme         WeightScheme... Becke
Basis function cutoff            BFCut       ... 1.0000e-11
Integration weight cutoff        WCut        ... 1.0000e-14
Angular grids for H and He will be reduced by one unit
Partially contracted basis set               ... on
Rotationally invariant grid construction     ... off

Total number of grid points                  ...    22611
Total number of batches                      ...      371
Average number of points per batch           ...       60
Average number of grid points per atom       ...      628
UseSFitting                                  ... on

GRIDX 2
-------
General Integration Accuracy     IntAcc      ... 4.020
Radial Grid Type                 RadialGrid  ... OptM3 with GC (2021)
Angular Grid (max. ang.)         AngularGrid ... 2 (Lebedev-110)
Angular grid pruning method      GridPruning ... 4 (adaptive)
Weight generation scheme         WeightScheme... Becke
Basis function cutoff            BFCut       ... 1.0000e-11
Integration weight cutoff        WCut        ... 1.0000e-14
Angular grids for H and He will be reduced by one unit
Partially contracted basis set               ... on
Rotationally invariant grid construction     ... off

Total number of grid points                  ...    49564
Total number of batches                      ...      788
Average number of points per batch           ...       62
Average number of grid points per atom       ...     1377
UseSFitting                                  ... on

GRIDX 3
-------
General Integration Accuracy     IntAcc      ... 4.338
Radial Grid Type                 RadialGrid  ... OptM3 with GC (2021)
Angular Grid (max. ang.)         AngularGrid ... 3 (Lebedev-194)
Angular grid pruning method      GridPruning ... 4 (adaptive)
Weight generation scheme         WeightScheme... Becke
Basis function cutoff            BFCut       ... 1.0000e-11
Integration weight cutoff        WCut        ... 1.0000e-14
Angular grids for H and He will be reduced by one unit
Partially contracted basis set               ... on
Rotationally invariant grid construction     ... off

Total number of grid points                  ...   109616
Total number of batches                      ...     1732
Average number of points per batch           ...       63
Average number of grid points per atom       ...     3045
UseSFitting                                  ... on

Time for X-Grid setup             =    2.144 sec


--------------------
CPCM SOLVATION MODEL
--------------------
CPCM parameters:
  Epsilon                                         ...      37.2190
  Refrac                                          ...       1.4305
  Rsolv                                           ...       1.3000
  Surface type                                    ... GAUSSIAN VDW
  Epsilon function type                           ...         CPCM
Solvent:                                     ... DMF
SMD-CDS solvent descriptors:
  Soln                                       ...    1.4305
  Soln25                                     ...    1.4280
  Sola                                       ...    0.0000
  Solb                                       ...    0.7400
  Solg                                       ...   49.5600
  Solc                                       ...    0.0000
  Solh                                       ...    0.0000
Radii:
 Radius for C  used is    3.4960 Bohr (=   1.8500 Ang.)
 Radius for S  used is    4.7054 Bohr (=   2.4900 Ang.)
 Radius for O  used is    4.3350 Bohr (=   2.2940 Ang.)
 Radius for H  used is    2.2677 Bohr (=   1.2000 Ang.)
Calculating surface                               ...        done! (  0.0s)
GEPOL surface points                              ...         1874
GEPOL Volume                                      ...    2715.5404
GEPOL Surface-area                                ...    1360.8946
Calculating surface distance matrix               ...        done! (  0.0s)
Performing Cholesky decomposition & store         ...        done! (  0.5s)
Overall time for CPCM initialization              ...                 0.5s
--------------
SCF ITERATIONS
--------------
ITER       Energy         Delta-E        Max-DP      RMS-DP      [F,P]     Damp
               ***  Starting incremental Fock matrix formation  ***
  0  -1714.9687271880   0.000000000000 0.13543926  0.00068008  0.1787816 0.7000
  1  -1715.1193551684  -0.150627980378 0.12009026  0.00063306  0.1178494 0.7000
                               ***Turning on DIIS***
  2  -1715.1959746320  -0.076619463607 0.30388234  0.00163207  0.0815929 0.0000
  3  -1715.3338794971  -0.137904865123 0.03026603  0.00018282  0.0251577 0.0000
  4  -1715.3510712543  -0.017191757210 0.01296817  0.00007897  0.0084305 0.0000
  5  -1715.3525009667  -0.001429712388 0.00840192  0.00004729  0.0039311 0.0000
  6  -1715.3528807608  -0.000379794059 0.00448852  0.00002627  0.0010407 0.0000
  7  -1715.3530074433  -0.000126682550 0.00308893  0.00001911  0.0006050 0.0000
               *** Restarting incremental Fock matrix formation ***
                                   *** Resetting DIIS ***
  8  -1715.3530441969  -0.000036753602 0.00120982  0.00001356  0.0004302 0.0000
  9  -1715.3530500608  -0.000005863848 0.00025138  0.00000226  0.0005176 0.0000
 10  -1715.3530530271  -0.000002966376 0.00029837  0.00000360  0.0001247 0.0000
 11  -1715.3530541797  -0.000001152593 0.00008433  0.00000108  0.0001310 0.0000
 12  -1715.3530543642  -0.000000184444 0.00005335  0.00000049  0.0000416 0.0000
 13  -1715.3530543767  -0.000000012497 0.00004294  0.00000037  0.0000065 0.0000
 14  -1715.3530543897  -0.000000013030 0.00005288  0.00000047  0.0000038 0.0000
 15  -1715.3530543855   0.000000004198 0.00002646  0.00000031  0.0000021 0.0000
                 **** Energy Check signals convergence ****

               *****************************************************
               *                     SUCCESS                       *
               *           SCF CONVERGED AFTER  16 CYCLES          *
               *****************************************************

Old exchange energy                            =    -51.372857503 Eh
New exchange energy                            =    -51.372831625 Eh
Exchange energy change after final integration =      0.000025879 Eh
Total energy after final integration           =  -1715.353028515 Eh
Final COS-X integration done in                =    47.709 sec

SMD CDS free energy correction energy :                -5.95988     Kcal/mol
Total Energy after SMD CDS correction =             -1715.362526190 Eh

----------------
TOTAL SCF ENERGY
----------------

Total Energy       :        -1715.36252619 Eh          -46677.38737 eV

Components:
Nuclear Repulsion  :         1970.14224692 Eh           53610.29603 eV
Electronic Energy  :        -3685.50477311 Eh         -100287.68340 eV
One Electron Energy:        -6267.05130772 Eh         -170535.13592 eV
Two Electron Energy:         2581.54653461 Eh           70247.45252 eV
Max COSX asymmetry :            0.00000046 Eh               0.00001 eV
CPCM Dielectric    :           -0.02575620 Eh              -0.70086 eV
SMD CDS (Gcds)     :           -0.00949768 Eh              -0.25844 eV

Virial components:
Potential Energy   :        -3426.17055851 Eh          -93230.84066 eV
Kinetic Energy     :         1710.80803232 Eh           46553.45329 eV
Virial Ratio       :            2.00266219


DFT components:
N(Alpha)           :       86.999992973412 electrons
N(Beta)            :       86.999992973412 electrons
N(Total)           :      173.999985946824 electrons
E(X)               :     -119.238720668491 Eh       
E(C)               :       -7.661009229057 Eh       
NL Energy, E(C,NL) :        0.660761106589 Eh       
E(XC)              :     -126.238968790959 Eh       
DFET-embed. en.    :        0.000000000000 Eh       
CPCM Solvation Model Properties:
Surface-charge          :           -0.03325748
Charge-correction       :            0.00040143 Eh               0.01092 eV
Free-energy (cav+disp)  :           -0.00949768 Eh              -0.25844 eV

---------------
SCF CONVERGENCE
---------------

  Last Energy change         ...   -8.1777e-09  Tolerance :   1.0000e-08
  Last MAX-Density change    ...    0.0000e+00  Tolerance :   1.0000e-07
  Last RMS-Density change    ...    0.0000e+00  Tolerance :   5.0000e-09
  Last DIIS Error            ...    1.3255e-06  Tolerance :   5.0000e-07

             **** THE GBW FILE WAS UPDATED (/burg/berkelbach/users/eav2136/projects/peroxide_dissociation/05_range_separated_functional/wb97x-v-peroxide-dmf/wb97x-v-peroxide-dmf_opt.gbw) ****
             **** DENSITY /burg/berkelbach/users/eav2136/projects/peroxide_dissociation/05_range_separated_functional/wb97x-v-peroxide-dmf/wb97x-v-peroxide-dmf_opt.scfp WAS UPDATED ****
             **** ENERGY FILE WAS UPDATED (/burg/berkelbach/users/eav2136/projects/peroxide_dissociation/05_range_separated_functional/wb97x-v-peroxide-dmf/wb97x-v-peroxide-dmf_opt.en.tmp) ****
----------------------
UHF SPIN CONTAMINATION
----------------------

Warning: in a DFT calculation there is little theoretical justification to 
         calculate <S**2> as in Hartree-Fock theory. We will do it anyways
         but you should keep in mind that the values have only limited relevance

Expectation value of <S**2>     :     0.000000
Ideal value S*(S+1) for S=0.0   :     0.000000
Deviation                       :     0.000000

             **** THE GBW FILE WAS UPDATED (/burg/berkelbach/users/eav2136/projects/peroxide_dissociation/05_range_separated_functional/wb97x-v-peroxide-dmf/wb97x-v-peroxide-dmf_opt.gbw) ****
             **** DENSITY /burg/berkelbach/users/eav2136/projects/peroxide_dissociation/05_range_separated_functional/wb97x-v-peroxide-dmf/wb97x-v-peroxide-dmf_opt.scfp WAS UPDATED ****
----------------
ORBITAL ENERGIES
----------------
                 SPIN UP ORBITALS
  NO   OCC          E(Eh)            E(eV) 
   0   1.0000     -88.867797     -2418.2157 
   1   1.0000     -88.866556     -2418.1819 
   2   1.0000     -19.330680      -526.0145 
   3   1.0000     -19.328732      -525.9615 
   4   1.0000     -19.223721      -523.1041 
   5   1.0000     -19.220196      -523.0081 
   6   1.0000     -10.423191      -283.6294 
   7   1.0000     -10.420541      -283.5573 
   8   1.0000     -10.322035      -280.8769 
   9   1.0000     -10.319965      -280.8205 
  10   1.0000     -10.296369      -280.1784 
  11   1.0000     -10.294542      -280.1287 
  12   1.0000     -10.291572      -280.0479 
  13   1.0000     -10.291314      -280.0409 
  14   1.0000     -10.289106      -279.9808 
  15   1.0000     -10.288510      -279.9646 
  16   1.0000     -10.288279      -279.9583 
  17   1.0000     -10.287806      -279.9454 
  18   1.0000     -10.281706      -279.7794 
  19   1.0000     -10.281567      -279.7757 
  20   1.0000     -10.281547      -279.7751 
  21   1.0000     -10.281178      -279.7651 
  22   1.0000      -8.046555      -218.9579 
  23   1.0000      -8.045299      -218.9237 
  24   1.0000      -6.002686      -163.3414 
  25   1.0000      -6.001452      -163.3078 
  26   1.0000      -5.998426      -163.2255 
  27   1.0000      -5.997209      -163.1924 
  28   1.0000      -5.993928      -163.1031 
  29   1.0000      -5.992617      -163.0674 
  30   1.0000      -1.341320       -36.4992 
  31   1.0000      -1.229547       -33.4577 
  32   1.0000      -1.196316       -32.5534 
  33   1.0000      -1.098992       -29.9051 
  34   1.0000      -1.022387       -27.8206 
  35   1.0000      -1.021034       -27.7838 
  36   1.0000      -0.954114       -25.9628 
  37   1.0000      -0.952278       -25.9128 
  38   1.0000      -0.898784       -24.4572 
  39   1.0000      -0.896781       -24.4026 
  40   1.0000      -0.889867       -24.2145 
  41   1.0000      -0.887524       -24.1508 
  42   1.0000      -0.816589       -22.2205 
  43   1.0000      -0.802032       -21.8244 
  44   1.0000      -0.766983       -20.8707 
  45   1.0000      -0.751160       -20.4401 
  46   1.0000      -0.749389       -20.3919 
  47   1.0000      -0.731481       -19.9046 
  48   1.0000      -0.708588       -19.2817 
  49   1.0000      -0.695404       -18.9229 
  50   1.0000      -0.676104       -18.3977 
  51   1.0000      -0.664737       -18.0884 
  52   1.0000      -0.630586       -17.1591 
  53   1.0000      -0.611015       -16.6266 
  54   1.0000      -0.598360       -16.2822 
  55   1.0000      -0.595875       -16.2146 
  56   1.0000      -0.583224       -15.8703 
  57   1.0000      -0.578266       -15.7354 
  58   1.0000      -0.575197       -15.6519 
  59   1.0000      -0.565638       -15.3918 
  60   1.0000      -0.562477       -15.3058 
  61   1.0000      -0.549818       -14.9613 
  62   1.0000      -0.545734       -14.8502 
  63   1.0000      -0.542566       -14.7640 
  64   1.0000      -0.541714       -14.7408 
  65   1.0000      -0.540593       -14.7103 
  66   1.0000      -0.529522       -14.4090 
  67   1.0000      -0.513300       -13.9676 
  68   1.0000      -0.508926       -13.8486 
  69   1.0000      -0.504968       -13.7409 
  70   1.0000      -0.501220       -13.6389 
  71   1.0000      -0.477437       -12.9917 
  72   1.0000      -0.473326       -12.8799 
  73   1.0000      -0.464899       -12.6506 
  74   1.0000      -0.458065       -12.4646 
  75   1.0000      -0.456349       -12.4179 
  76   1.0000      -0.431615       -11.7448 
  77   1.0000      -0.426709       -11.6114 
  78   1.0000      -0.425631       -11.5820 
  79   1.0000      -0.415936       -11.3182 
  80   1.0000      -0.410323       -11.1655 
  81   1.0000      -0.402372       -10.9491 
  82   1.0000      -0.396258       -10.7827 
  83   1.0000      -0.366102        -9.9622 
  84   1.0000      -0.362756        -9.8711 
  85   1.0000      -0.309353        -8.4179 
  86   1.0000      -0.307820        -8.3762 
  87   0.0000       0.012828         0.3491 
  88   0.0000       0.027278         0.7423 
  89   0.0000       0.056941         1.5494 
  90   0.0000       0.059385         1.6159 
  91   0.0000       0.085630         2.3301 
  92   0.0000       0.107035         2.9126 
  93   0.0000       0.111905         3.0451 
  94   0.0000       0.119181         3.2431 
  95   0.0000       0.125978         3.4280 
  96   0.0000       0.130448         3.5497 
  97   0.0000       0.140508         3.8234 
  98   0.0000       0.152295         4.1441 
  99   0.0000       0.154647         4.2082 
 100   0.0000       0.162221         4.4143 
 101   0.0000       0.166072         4.5190 
 102   0.0000       0.168433         4.5833 
 103   0.0000       0.178793         4.8652 
 104   0.0000       0.184856         5.0302 
 105   0.0000       0.190710         5.1895 
 106   0.0000       0.191092         5.1999 
 107   0.0000       0.192896         5.2490 
 108   0.0000       0.197446         5.3728 
 109   0.0000       0.202685         5.5153 
 110   0.0000       0.208483         5.6731 
 111   0.0000       0.213771         5.8170 
 112   0.0000       0.217077         5.9070 
 113   0.0000       0.220145         5.9905 
 114   0.0000       0.227153         6.1812 
 115   0.0000       0.234774         6.3885 
 116   0.0000       0.242031         6.5860 
 117   0.0000       0.245169         6.6714 
 118   0.0000       0.254807         6.9337 
 119   0.0000       0.261566         7.1176 
 120   0.0000       0.269439         7.3318 
 121   0.0000       0.277620         7.5544 
 122   0.0000       0.282556         7.6887 
 123   0.0000       0.287121         7.8130 
 124   0.0000       0.291371         7.9286 
 125   0.0000       0.296293         8.0625 
 126   0.0000       0.300205         8.1690 
 127   0.0000       0.302526         8.2322 
 128   0.0000       0.304590         8.2883 
 129   0.0000       0.309658         8.4262 
 130   0.0000       0.313242         8.5238 
 131   0.0000       0.319928         8.7057 
 132   0.0000       0.324623         8.8334 
 133   0.0000       0.326758         8.8915 
 134   0.0000       0.330256         8.9867 
 135   0.0000       0.333949         9.0872 
 136   0.0000       0.339120         9.2279 
 137   0.0000       0.340264         9.2590 
 138   0.0000       0.342646         9.3239 
 139   0.0000       0.346572         9.4307 
 140   0.0000       0.352715         9.5978 
 141   0.0000       0.365908         9.9569 
 142   0.0000       0.371473        10.1083 
 143   0.0000       0.371844        10.1184 
 144   0.0000       0.377175        10.2634 
 145   0.0000       0.382096        10.3974 
 146   0.0000       0.386843        10.5265 
 147   0.0000       0.398963        10.8563 
 148   0.0000       0.401868        10.9354 
 149   0.0000       0.407812        11.0971 
 150   0.0000       0.410041        11.1578 
 151   0.0000       0.414592        11.2816 
 152   0.0000       0.420132        11.4324 
 153   0.0000       0.423012        11.5107 
 154   0.0000       0.425477        11.5778 
 155   0.0000       0.431290        11.7360 
 156   0.0000       0.434837        11.8325 
 157   0.0000       0.445897        12.1335 
 158   0.0000       0.449130        12.2215 
 159   0.0000       0.452780        12.3208 
 160   0.0000       0.457689        12.4544 
 161   0.0000       0.461766        12.5653 
 162   0.0000       0.466130        12.6840 
 163   0.0000       0.468943        12.7606 
 164   0.0000       0.473190        12.8762 
 165   0.0000       0.478438        13.0190 
 166   0.0000       0.487150        13.2560 
 167   0.0000       0.489390        13.3170 
 168   0.0000       0.490838        13.3564 
 169   0.0000       0.497589        13.5401 
 170   0.0000       0.498780        13.5725 
 171   0.0000       0.500833        13.6283 
 172   0.0000       0.506719        13.7885 
 173   0.0000       0.511069        13.9069 
 174   0.0000       0.516568        14.0565 
 175   0.0000       0.519518        14.1368 
 176   0.0000       0.526094        14.3158 
 177   0.0000       0.529813        14.4169 
 178   0.0000       0.535600        14.5744 
 179   0.0000       0.542410        14.7597 
 180   0.0000       0.545999        14.8574 
 181   0.0000       0.552453        15.0330 
 182   0.0000       0.557466        15.1694 
 183   0.0000       0.564277        15.3548 
 184   0.0000       0.566764        15.4224 
 185   0.0000       0.570058        15.5121 
 186   0.0000       0.575324        15.6554 
 187   0.0000       0.578256        15.7352 
 188   0.0000       0.582595        15.8532 
 189   0.0000       0.587245        15.9798 
 190   0.0000       0.589153        16.0317 
 191   0.0000       0.592292        16.1171 
 192   0.0000       0.597739        16.2653 
 193   0.0000       0.603891        16.4327 
 194   0.0000       0.610758        16.6196 
 195   0.0000       0.616398        16.7730 
 196   0.0000       0.620098        16.8737 
 197   0.0000       0.630446        17.1553 
 198   0.0000       0.635178        17.2841 
 199   0.0000       0.640064        17.4170 
 200   0.0000       0.641929        17.4678 
 201   0.0000       0.645068        17.5532 
 202   0.0000       0.648869        17.6566 
 203   0.0000       0.659935        17.9578 
 204   0.0000       0.669565        18.2198 
 205   0.0000       0.676353        18.4045 
 206   0.0000       0.686620        18.6839 
 207   0.0000       0.690688        18.7946 
 208   0.0000       0.693231        18.8638 
 209   0.0000       0.702487        19.1156 
 210   0.0000       0.715626        19.4732 
 211   0.0000       0.722919        19.6716 
 212   0.0000       0.725756        19.7488 
 213   0.0000       0.732621        19.9356 
 214   0.0000       0.738849        20.1051 
 215   0.0000       0.743693        20.2369 
 216   0.0000       0.752617        20.4797 
 217   0.0000       0.763952        20.7882 
 218   0.0000       0.769323        20.9343 
 219   0.0000       0.772160        21.0115 
 220   0.0000       0.780221        21.2309 
 221   0.0000       0.787682        21.4339 
 222   0.0000       0.791078        21.5263 
 223   0.0000       0.795264        21.6402 
 224   0.0000       0.798082        21.7169 
 225   0.0000       0.807300        21.9678 
 226   0.0000       0.808430        21.9985 
 227   0.0000       0.813931        22.1482 
 228   0.0000       0.821259        22.3476 
 229   0.0000       0.826211        22.4823 
 230   0.0000       0.836016        22.7491 
 231   0.0000       0.840747        22.8779 
 232   0.0000       0.852863        23.2076 
 233   0.0000       0.855952        23.2916 
 234   0.0000       0.862968        23.4826 
 235   0.0000       0.864505        23.5244 
 236   0.0000       0.870631        23.6911 
 237   0.0000       0.873264        23.7627 
 238   0.0000       0.875176        23.8147 
 239   0.0000       0.887362        24.1463 
 240   0.0000       0.895584        24.3701 
 241   0.0000       0.897248        24.4154 
 242   0.0000       0.900839        24.5131 
 243   0.0000       0.910082        24.7646 
 244   0.0000       0.912087        24.8191 
 245   0.0000       0.919705        25.0264 
 246   0.0000       0.926970        25.2241 
 247   0.0000       0.940916        25.6036 
 248   0.0000       0.949639        25.8410 
 249   0.0000       0.952236        25.9117 
 250   0.0000       0.962870        26.2010 
 251   0.0000       0.965194        26.2643 
 252   0.0000       0.969831        26.3904 
 253   0.0000       0.981475        26.7073 
 254   0.0000       0.985872        26.8269 
 255   0.0000       0.992012        26.9940 
 256   0.0000       1.004262        27.3274 
 257   0.0000       1.006013        27.3750 
 258   0.0000       1.013923        27.5903 
 259   0.0000       1.019985        27.7552 
 260   0.0000       1.024364        27.8744 
 261   0.0000       1.037281        28.2259 
 262   0.0000       1.039492        28.2860 
 263   0.0000       1.050268        28.5792 
 264   0.0000       1.059685        28.8355 
 265   0.0000       1.064750        28.9733 
 266   0.0000       1.068472        29.0746 
 267   0.0000       1.075266        29.2595 
 268   0.0000       1.078059        29.3355 
 269   0.0000       1.096912        29.8485 
 270   0.0000       1.098683        29.8967 
 271   0.0000       1.105708        30.0879 
 272   0.0000       1.111860        30.2552 
 273   0.0000       1.122217        30.5371 
 274   0.0000       1.134589        30.8737 
 275   0.0000       1.140417        31.0323 
 276   0.0000       1.145543        31.1718 
 277   0.0000       1.154392        31.4126 
 278   0.0000       1.170906        31.8620 
 279   0.0000       1.171992        31.8915 
 280   0.0000       1.181626        32.1537 
 281   0.0000       1.186501        32.2863 
 282   0.0000       1.194947        32.5162 
 283   0.0000       1.204422        32.7740 
 284   0.0000       1.224644        33.3243 
 285   0.0000       1.227661        33.4064 
 286   0.0000       1.246792        33.9269 
 287   0.0000       1.258601        34.2483 
 288   0.0000       1.269810        34.5533 
 289   0.0000       1.275917        34.7195 
 290   0.0000       1.291479        35.1429 
 291   0.0000       1.305638        35.5282 
 292   0.0000       1.314862        35.7792 
 293   0.0000       1.320145        35.9230 
 294   0.0000       1.325442        36.0671 
 295   0.0000       1.333518        36.2869 
 296   0.0000       1.336715        36.3739 
 297   0.0000       1.341647        36.5081 
 298   0.0000       1.350116        36.7385 
 299   0.0000       1.361846        37.0577 
 300   0.0000       1.376596        37.4591 
 301   0.0000       1.380034        37.5526 
 302   0.0000       1.391390        37.8616 
 303   0.0000       1.396542        38.0018 
 304   0.0000       1.400499        38.1095 
 305   0.0000       1.402735        38.1704 
 306   0.0000       1.417181        38.5635 
 307   0.0000       1.432000        38.9667 
 308   0.0000       1.434299        39.0293 
 309   0.0000       1.445001        39.3205 
 310   0.0000       1.460060        39.7303 
 311   0.0000       1.472219        40.0611 
 312   0.0000       1.487527        40.4777 
 313   0.0000       1.496497        40.7218 
 314   0.0000       1.511524        41.1307 
 315   0.0000       1.525650        41.5150 
 316   0.0000       1.544254        42.0213 
 317   0.0000       1.549401        42.1613 
 318   0.0000       1.555559        42.3289 
 319   0.0000       1.558630        42.4125 
 320   0.0000       1.567350        42.6498 
 321   0.0000       1.574535        42.8453 
 322   0.0000       1.585115        43.1332 
 323   0.0000       1.591252        43.3002 
 324   0.0000       1.597481        43.4697 
 325   0.0000       1.607116        43.7318 
 326   0.0000       1.610851        43.8335 
 327   0.0000       1.614848        43.9423 
 328   0.0000       1.619010        44.0555 
 329   0.0000       1.619769        44.0762 
 330   0.0000       1.624874        44.2151 
 331   0.0000       1.632952        44.4349 
 332   0.0000       1.636895        44.5422 
 333   0.0000       1.640164        44.6311 
 334   0.0000       1.641310        44.6623 
 335   0.0000       1.647833        44.8398 
 336   0.0000       1.654624        45.0246 
 337   0.0000       1.660938        45.1964 
 338   0.0000       1.663377        45.2628 
 339   0.0000       1.664771        45.3007 
 340   0.0000       1.669945        45.4415 
 341   0.0000       1.676945        45.6320 
 342   0.0000       1.681468        45.7551 
 343   0.0000       1.690218        45.9932 
 344   0.0000       1.693756        46.0894 
 345   0.0000       1.699674        46.2505 
 346   0.0000       1.707926        46.4750 
 347   0.0000       1.708518        46.4911 
 348   0.0000       1.715230        46.6738 
 349   0.0000       1.723024        46.8859 
 350   0.0000       1.728800        47.0430 
 351   0.0000       1.732193        47.1354 
 352   0.0000       1.735421        47.2232 
 353   0.0000       1.747078        47.5404 
 354   0.0000       1.759144        47.8688 
 355   0.0000       1.766738        48.0754 
 356   0.0000       1.772873        48.2423 
 357   0.0000       1.779234        48.4154 
 358   0.0000       1.787649        48.6444 
 359   0.0000       1.793838        48.8128 
 360   0.0000       1.798115        48.9292 
 361   0.0000       1.801829        49.0303 
 362   0.0000       1.805328        49.1255 
 363   0.0000       1.810531        49.2670 
 364   0.0000       1.824168        49.6381 
 365   0.0000       1.828725        49.7621 
 366   0.0000       1.833129        49.8820 
 367   0.0000       1.843266        50.1578 
 368   0.0000       1.854285        50.4577 
 369   0.0000       1.858079        50.5609 
 370   0.0000       1.885182        51.2984 
 371   0.0000       1.890251        51.4363 
 372   0.0000       1.903007        51.7834 
 373   0.0000       1.919056        52.2202 
 374   0.0000       1.919196        52.2240 
 375   0.0000       1.926500        52.4227 
 376   0.0000       1.931127        52.5486 
 377   0.0000       1.934705        52.6460 
 378   0.0000       1.938535        52.7502 
 379   0.0000       1.947911        53.0053 
 380   0.0000       1.952362        53.1265 
 381   0.0000       1.954277        53.1786 
 382   0.0000       1.960667        53.3525 
 383   0.0000       1.964072        53.4451 
 384   0.0000       1.971291        53.6415 
 385   0.0000       1.973658        53.7060 
 386   0.0000       1.981066        53.9075 
 387   0.0000       1.984599        54.0037 
 388   0.0000       1.988867        54.1198 
 389   0.0000       1.993716        54.2518 
 390   0.0000       2.006817        54.6083 
 391   0.0000       2.007954        54.6392 
 392   0.0000       2.028113        55.1878 
 393   0.0000       2.038666        55.4749 
 394   0.0000       2.051898        55.8350 
 395   0.0000       2.069309        56.3088 
 396   0.0000       2.073779        56.4304 
 397   0.0000       2.080649        56.6173 
 398   0.0000       2.084514        56.7225 
 399   0.0000       2.104755        57.2733 
 400   0.0000       2.117422        57.6180 
[...]
      px      :     0.000000
      py      :     0.000000
      dz2     :     0.000000  d :     0.000000
      dxz     :     0.000000
      dyz     :     0.000000
      dx2y2   :     0.000000
      dxy     :     0.000000
      f0      :     0.000000  f :     0.000000
      f+1     :     0.000000
      f-1     :     0.000000
      f+2     :     0.000000
      f-2     :     0.000000
      f+3     :     0.000000
      f-3     :     0.000000
  5 C s       :     0.000000  s :     0.000000
      pz      :     0.000000  p :     0.000000
      px      :     0.000000
      py      :     0.000000
      dz2     :     0.000000  d :     0.000000
      dxz     :     0.000000
      dyz     :     0.000000
      dx2y2   :     0.000000
      dxy     :     0.000000
      f0      :     0.000000  f :     0.000000
      f+1     :     0.000000
      f-1     :     0.000000
      f+2     :     0.000000
      f-2     :     0.000000
      f+3     :     0.000000
      f-3     :     0.000000
  6 C s       :     0.000000  s :     0.000000
      pz      :     0.000000  p :     0.000000
      px      :     0.000000
      py      :     0.000000
      dz2     :     0.000000  d :     0.000000
      dxz     :     0.000000
      dyz     :     0.000000
      dx2y2   :     0.000000
      dxy     :     0.000000
      f0      :     0.000000  f :     0.000000
      f+1     :     0.000000
      f-1     :     0.000000
      f+2     :     0.000000
      f-2     :     0.000000
      f+3     :     0.000000
      f-3     :     0.000000
  7 C s       :     0.000000  s :     0.000000
      pz      :     0.000000  p :     0.000000
      px      :     0.000000
      py      :     0.000000
      dz2     :     0.000000  d :     0.000000
      dxz     :     0.000000
      dyz     :     0.000000
      dx2y2   :     0.000000
      dxy     :     0.000000
      f0      :     0.000000  f :     0.000000
      f+1     :     0.000000
      f-1     :     0.000000
      f+2     :     0.000000
      f-2     :     0.000000
      f+3     :     0.000000
      f-3     :     0.000000
  8 C s       :     0.000000  s :     0.000000
      pz      :     0.000000  p :     0.000000
      px      :     0.000000
      py      :     0.000000
      dz2     :     0.000000  d :     0.000000
      dxz     :     0.000000
      dyz     :     0.000000
      dx2y2   :     0.000000
      dxy     :     0.000000
      f0      :     0.000000  f :     0.000000
      f+1     :     0.000000
      f-1     :     0.000000
      f+2     :     0.000000
      f-2     :     0.000000
      f+3     :     0.000000
      f-3     :     0.000000
  9 O s       :     0.000000  s :     0.000000
      pz      :     0.000000  p :     0.000000
      px      :     0.000000
      py      :     0.000000
      dz2     :     0.000000  d :     0.000000
      dxz     :     0.000000
      dyz     :     0.000000
      dx2y2   :     0.000000
      dxy     :     0.000000
      f0      :     0.000000  f :     0.000000
      f+1     :     0.000000
      f-1     :     0.000000
      f+2     :     0.000000
      f-2     :     0.000000
      f+3     :     0.000000
      f-3     :     0.000000
 10 O s       :     0.000000  s :     0.000000
      pz      :     0.000000  p :     0.000000
      px      :     0.000000
      py      :     0.000000
      dz2     :     0.000000  d :     0.000000
      dxz     :     0.000000
      dyz     :     0.000000
      dx2y2   :     0.000000
      dxy     :     0.000000
      f0      :     0.000000  f :     0.000000
      f+1     :     0.000000
      f-1     :     0.000000
      f+2     :     0.000000
      f-2     :     0.000000
      f+3     :     0.000000
      f-3     :     0.000000
 11 O s       :     0.000000  s :     0.000000
      pz      :     0.000000  p :     0.000000
      px      :     0.000000
      py      :     0.000000
      dz2     :     0.000000  d :     0.000000
      dxz     :     0.000000
      dyz     :     0.000000
      dx2y2   :     0.000000
      dxy     :     0.000000
      f0      :     0.000000  f :     0.000000
      f+1     :     0.000000
      f-1     :     0.000000
      f+2     :     0.000000
      f-2     :     0.000000
      f+3     :     0.000000
      f-3     :     0.000000
 12 C s       :     0.000000  s :     0.000000
      pz      :     0.000000  p :     0.000000
      px      :     0.000000
      py      :     0.000000
      dz2     :     0.000000  d :     0.000000
      dxz     :     0.000000
      dyz     :     0.000000
      dx2y2   :     0.000000
      dxy     :     0.000000
      f0      :     0.000000  f :     0.000000
      f+1     :     0.000000
      f-1     :     0.000000
      f+2     :     0.000000
      f-2     :     0.000000
      f+3     :     0.000000
      f-3     :     0.000000
 13 C s       :     0.000000  s :     0.000000
      pz      :     0.000000  p :     0.000000
      px      :     0.000000
      py      :     0.000000
      dz2     :     0.000000  d :     0.000000
      dxz     :     0.000000
      dyz     :     0.000000
      dx2y2   :     0.000000
      dxy     :     0.000000
      f0      :     0.000000  f :     0.000000
      f+1     :     0.000000
      f-1     :     0.000000
      f+2     :     0.000000
      f-2     :     0.000000
      f+3     :     0.000000
      f-3     :     0.000000
 14 O s       :     0.000000  s :     0.000000
      pz      :     0.000000  p :     0.000000
      px      :     0.000000
      py      :     0.000000
      dz2     :     0.000000  d :     0.000000
      dxz     :     0.000000
      dyz     :     0.000000
      dx2y2   :     0.000000
      dxy     :     0.000000
      f0      :     0.000000  f :     0.000000
      f+1     :     0.000000
      f-1     :     0.000000
      f+2     :     0.000000
      f-2     :     0.000000
      f+3     :     0.000000
      f-3     :     0.000000
 15 C s       :     0.000000  s :     0.000000
      pz      :     0.000000  p :     0.000000
      px      :     0.000000
      py      :     0.000000
      dz2     :     0.000000  d :     0.000000
      dxz     :     0.000000
      dyz     :     0.000000
      dx2y2   :     0.000000
      dxy     :     0.000000
      f0      :     0.000000  f :     0.000000
      f+1     :     0.000000
      f-1     :     0.000000
      f+2     :     0.000000
      f-2     :     0.000000
      f+3     :     0.000000
      f-3     :     0.000000
 16 C s       :     0.000000  s :     0.000000
      pz      :     0.000000  p :     0.000000
      px      :     0.000000
      py      :     0.000000
      dz2     :     0.000000  d :     0.000000
      dxz     :     0.000000
      dyz     :     0.000000
      dx2y2   :     0.000000
      dxy     :     0.000000
      f0      :     0.000000  f :     0.000000
      f+1     :     0.000000
      f-1     :     0.000000
      f+2     :     0.000000
      f-2     :     0.000000
      f+3     :     0.000000
      f-3     :     0.000000
 17 C s       :     0.000000  s :     0.000000
      pz      :     0.000000  p :     0.000000
      px      :     0.000000
      py      :     0.000000
      dz2     :     0.000000  d :     0.000000
      dxz     :     0.000000
      dyz     :     0.000000
      dx2y2   :     0.000000
      dxy     :     0.000000
      f0      :     0.000000  f :     0.000000
      f+1     :     0.000000
      f-1     :     0.000000
      f+2     :     0.000000
      f-2     :     0.000000
      f+3     :     0.000000
      f-3     :     0.000000
 18 C s       :     0.000000  s :     0.000000
      pz      :     0.000000  p :     0.000000
      px      :     0.000000
      py      :     0.000000
      dz2     :     0.000000  d :     0.000000
      dxz     :     0.000000
      dyz     :     0.000000
      dx2y2   :     0.000000
      dxy     :     0.000000
      f0      :     0.000000  f :     0.000000
      f+1     :     0.000000
      f-1     :     0.000000
      f+2     :     0.000000
      f-2     :     0.000000
      f+3     :     0.000000
      f-3     :     0.000000
 19 C s       :     0.000000  s :     0.000000
      pz      :     0.000000  p :     0.000000
      px      :     0.000000
      py      :     0.000000
      dz2     :     0.000000  d :     0.000000
      dxz     :     0.000000
      dyz     :     0.000000
      dx2y2   :     0.000000
      dxy     :     0.000000
      f0      :     0.000000  f :     0.000000
      f+1     :     0.000000
      f-1     :     0.000000
      f+2     :     0.000000
      f-2     :     0.000000
      f+3     :     0.000000
      f-3     :     0.000000
 20 S s       :     0.000000  s :     0.000000
      pz      :     0.000000  p :     0.000000
      px      :     0.000000
      py      :     0.000000
      dz2     :     0.000000  d :     0.000000
      dxz     :     0.000000
      dyz     :     0.000000
      dx2y2   :     0.000000
      dxy     :     0.000000
      f0      :     0.000000  f :     0.000000
      f+1     :     0.000000
      f-1     :     0.000000
      f+2     :     0.000000
      f-2     :     0.000000
      f+3     :     0.000000
      f-3     :     0.000000
 21 C s       :     0.000000  s :     0.000000
      pz      :     0.000000  p :     0.000000
      px      :     0.000000
      py      :     0.000000
      dz2     :     0.000000  d :     0.000000
      dxz     :     0.000000
      dyz     :     0.000000
      dx2y2   :     0.000000
      dxy     :     0.000000
      f0      :     0.000000  f :     0.000000
      f+1     :     0.000000
      f-1     :     0.000000
      f+2     :     0.000000
      f-2     :     0.000000
      f+3     :     0.000000
      f-3     :     0.000000
 22 H s       :     0.000000  s :     0.000000
      pz      :     0.000000  p :     0.000000
      px      :     0.000000
      py      :     0.000000
 23 H s       :     0.000000  s :     0.000000
      pz      :     0.000000  p :     0.000000
      px      :     0.000000
      py      :     0.000000
 24 H s       :     0.000000  s :     0.000000
      pz      :     0.000000  p :     0.000000
      px      :     0.000000
      py      :     0.000000
 25 H s       :     0.000000  s :     0.000000
      pz      :     0.000000  p :     0.000000
      px      :     0.000000
      py      :     0.000000
 26 H s       :     0.000000  s :     0.000000
      pz      :     0.000000  p :     0.000000
      px      :     0.000000
      py      :     0.000000
 27 H s       :     0.000000  s :     0.000000
      pz      :     0.000000  p :     0.000000
      px      :     0.000000
      py      :     0.000000
 28 H s       :     0.000000  s :     0.000000
      pz      :     0.000000  p :     0.000000
      px      :     0.000000
      py      :     0.000000
 29 H s       :     0.000000  s :     0.000000
      pz      :     0.000000  p :     0.000000
      px      :     0.000000
      py      :     0.000000
 30 H s       :     0.000000  s :     0.000000
      pz      :     0.000000  p :     0.000000
      px      :     0.000000
      py      :     0.000000
 31 H s       :     0.000000  s :     0.000000
      pz      :     0.000000  p :     0.000000
      px      :     0.000000
      py      :     0.000000
 32 H s       :     0.000000  s :     0.000000
      pz      :     0.000000  p :     0.000000
      px      :     0.000000
      py      :     0.000000
 33 H s       :     0.000000  s :     0.000000
      pz      :     0.000000  p :     0.000000
      px      :     0.000000
      py      :     0.000000
 34 H s       :     0.000000  s :     0.000000
      pz      :     0.000000  p :     0.000000
      px      :     0.000000
      py      :     0.000000
 35 H s       :     0.000000  s :     0.000000
      pz      :     0.000000  p :     0.000000
      px      :     0.000000
      py      :     0.000000


                      *****************************
                      * MAYER POPULATION ANALYSIS *
                      *****************************

  NA   - Mulliken gross atomic population
  ZA   - Total nuclear charge
  QA   - Mulliken gross atomic charge
  VA   - Mayer's total valence
  BVA  - Mayer's bonded valence
  FA   - Mayer's free valence

  ATOM       NA         ZA         QA         VA         BVA        FA
  0 C      6.4111     6.0000    -0.4111     3.9372     3.9372     0.0000
  1 S     16.0404    16.0000    -0.0404     2.3934     2.3934     0.0000
  2 C      5.8811     6.0000     0.1189     3.8706     3.8706    -0.0000
  3 C      6.2347     6.0000    -0.2347     3.8597     3.8597    -0.0000
  4 C      6.2253     6.0000    -0.2253     3.9475     3.9475    -0.0000
  5 C      5.8871     6.0000     0.1129     3.5440     3.5440    -0.0000
  6 C      6.2487     6.0000    -0.2487     4.0217     4.0217    -0.0000
  7 C      6.1899     6.0000    -0.1899     3.8524     3.8524     0.0000
  8 C      5.7331     6.0000     0.2669     4.3563     4.3563     0.0000
  9 O      8.0785     8.0000    -0.0785     2.0105     2.0105    -0.0000
 10 O      8.2872     8.0000    -0.2872     2.2456     2.2456     0.0000
 11 O      8.1099     8.0000    -0.1099     2.0303     2.0303    -0.0000
 12 C      5.7293     6.0000     0.2707     4.3573     4.3573     0.0000
 13 C      5.8831     6.0000     0.1169     3.4673     3.4673    -0.0000
 14 O      8.2949     8.0000    -0.2949     2.2286     2.2286    -0.0000
 15 C      6.2380     6.0000    -0.2380     3.9989     3.9989     0.0000
 16 C      6.1851     6.0000    -0.1851     3.8554     3.8554     0.0000
 17 C      5.8678     6.0000     0.1322     3.8729     3.8729    -0.0000
 18 C      6.2436     6.0000    -0.2436     3.8838     3.8838    -0.0000
 19 C      6.2394     6.0000    -0.2394     3.9840     3.9840     0.0000
 20 S     16.0324    16.0000    -0.0324     2.4112     2.4112    -0.0000
 21 C      6.4114     6.0000    -0.4114     3.9366     3.9366    -0.0000
 22 H      0.8168     1.0000     0.1832     0.9595     0.9595    -0.0000
 23 H      0.8336     1.0000     0.1664     0.9593     0.9593     0.0000
 24 H      0.8334     1.0000     0.1666     0.9569     0.9569     0.0000
 25 H      0.8178     1.0000     0.1822     0.9608     0.9608     0.0000
 26 H      0.8208     1.0000     0.1792     0.9790     0.9790     0.0000
 27 H      0.8215     1.0000     0.1785     0.9636     0.9636     0.0000
 28 H      0.8303     1.0000     0.1697     0.9686     0.9686    -0.0000
 29 H      0.8261     1.0000     0.1739     0.9765     0.9765     0.0000
 30 H      0.8307     1.0000     0.1693     0.9699     0.9699    -0.0000
 31 H      0.8186     1.0000     0.1814     0.9617     0.9617     0.0000
 32 H      0.8177     1.0000     0.1823     0.9671     0.9671     0.0000
 33 H      0.8158     1.0000     0.1842     0.9592     0.9592     0.0000
 34 H      0.8326     1.0000     0.1674     0.9583     0.9583     0.0000
 35 H      0.8325     1.0000     0.1675     0.9576     0.9576     0.0000

  Mayer bond orders larger than 0.100000
B(  0-C ,  1-S ) :   1.0634 B(  0-C , 22-H ) :   0.9471 B(  0-C , 23-H ) :   0.9573 
B(  0-C , 24-H ) :   0.9562 B(  1-S ,  2-C ) :   1.2005 B(  2-C ,  3-C ) :   1.2980 
B(  2-C ,  7-C ) :   1.2958 B(  3-C ,  4-C ) :   1.4528 B(  3-C , 25-H ) :   0.9666 
B(  4-C ,  5-C ) :   1.3238 B(  4-C , 26-H ) :   0.9386 B(  5-C ,  6-C ) :   1.3398 
B(  5-C ,  8-C ) :   0.9320 B(  6-C ,  7-C ) :   1.4822 B(  6-C , 27-H ) :   0.9745 
B(  7-C , 28-H ) :   0.9730 B(  8-C ,  9-O ) :   1.1208 B(  8-C , 10-O ) :   2.2008 
B(  9-O , 11-O ) :   0.8287 B( 11-O , 12-C ) :   1.1144 B( 12-C , 13-C ) :   0.9592 
B( 12-C , 14-O ) :   2.1435 B( 13-C , 15-C ) :   1.3050 B( 13-C , 19-C ) :   1.3303 
B( 15-C , 16-C ) :   1.5028 B( 15-C , 29-H ) :   0.9703 B( 16-C , 17-C ) :   1.2759 
B( 16-C , 30-H ) :   0.9752 B( 17-C , 18-C ) :   1.3049 B( 17-C , 20-S ) :   1.2141 
B( 18-C , 19-C ) :   1.4620 B( 18-C , 31-H ) :   0.9628 B( 19-C , 32-H ) :   0.9592 
B( 20-S , 21-C ) :   1.0628 B( 21-C , 33-H ) :   0.9464 B( 21-C , 34-H ) :   0.9569 
B( 21-C , 35-H ) :   0.9565 

-------
TIMINGS
-------

Total SCF time: 0 days 0 hours 5 min 27 sec 

Total time                  ....     327.208 sec
Sum of individual times     ....     324.634 sec  ( 99.2%)

Fock matrix formation       ....     316.515 sec  ( 96.7%)
  Split-RI-J                ....       8.130 sec  (  2.6% of F)
  Chain of spheres X        ....     184.069 sec  ( 58.2% of F)
  XC integration            ....     110.668 sec  ( 35.0% of F)
    Basis function eval.    ....       4.672 sec  (  4.2% of XC)
    Density eval.           ....       9.363 sec  (  8.5% of XC)
    XC-Functional eval.     ....      45.225 sec  ( 40.9% of XC)
    XC-Potential eval.      ....       4.432 sec  (  4.0% of XC)
Diagonalization             ....       2.891 sec  (  0.9%)
Density matrix formation    ....       0.135 sec  (  0.0%)
Population analysis         ....       0.308 sec  (  0.1%)
Initial guess               ....       0.440 sec  (  0.1%)
Orbital Transformation      ....       0.000 sec  (  0.0%)
Orbital Orthonormalization  ....       0.383 sec  (  0.1%)
DIIS solution               ....       1.234 sec  (  0.4%)
Grid generation             ....       3.112 sec  (  1.0%)

Maximum memory used throughout the entire SCF-calculation: 186.1 MB

-------------------------   --------------------
FINAL SINGLE POINT ENERGY     -1715.363661830223
-------------------------   --------------------

                                *** OPTIMIZATION RUN DONE ***

                            ***************************************
                            *     ORCA property calculations      *
                            ***************************************

                                    ---------------------
                                    Active property flags
                                    ---------------------
   (+) Dipole Moment


------------------------------------------------------------------------------
                       ORCA ELECTRIC PROPERTIES CALCULATION
------------------------------------------------------------------------------

Dipole Moment Calculation                       ... on
Quadrupole Moment Calculation                   ... off
Polarizability Calculation                      ... off
GBWName                                         ... /burg/berkelbach/users/eav2136/projects/peroxide_dissociation/05_range_separated_functional/wb97x-v-peroxide-dmf/wb97x-v-peroxide-dmf_opt.gbw
Electron density                                ... /burg/berkelbach/users/eav2136/projects/peroxide_dissociation/05_range_separated_functional/wb97x-v-peroxide-dmf/wb97x-v-peroxide-dmf_opt.scfp
The origin for moment calculation is the CENTER OF MASS  = (-0.246022,  3.449161  5.648032)

-------------
DIPOLE MOMENT
-------------
                                X             Y             Z
Electronic contribution:     -0.84846      -9.02595     -13.94170
Nuclear contribution   :      1.38951      10.60434      17.43505
                        -----------------------------------------
Total Dipole Moment    :      0.54105       1.57839       3.49335
                        -----------------------------------------
Magnitude (a.u.)       :      3.87137
Magnitude (Debye)      :      9.84025



--------------------
Rotational spectrum 
--------------------
 
Rotational constants in cm-1:     0.008934     0.005573     0.003777 
Rotational constants in MHz :   267.824245   167.076328   113.244146 

 Dipole components along the rotational axes: 
x,y,z [a.u.] :     2.462237     2.970911    -0.314006 
x,y,z [Debye]:     6.258509     7.551457    -0.798140 

 

Timings for individual modules:

Sum of individual times         ...     5762.195 sec (=  96.037 min)
GTO integral calculation        ...       35.594 sec (=   0.593 min)   0.6 %
SCF iterations                  ...     4716.418 sec (=  78.607 min)  81.9 %
SCF Gradient evaluation         ...     1007.660 sec (=  16.794 min)  17.5 %
Geometry relaxation             ...        2.524 sec (=   0.042 min)   0.0 %
                             ****ORCA TERMINATED NORMALLY****
TOTAL RUN TIME: 0 days 1 hours 36 minutes 16 seconds 542 msec
