Job execution start: Fri Apr 22 11:37:41 EDT 2022
Shared library path: /cm/shared/apps/cuda11.0/toolkit/11.0.3/compat:/burg/berkelbach/users/eav2136/builds/orca/5.0.3/orca:/cm/shared/apps/ucx/1.8.1/lib64:/cm/local/apps/cuda/libs/current/lib64:/cm/shared/apps/cuda11.0/toolkit/11.0.3/targets/x86_64-linux/lib:/cm/shared/apps/cuda11.0/visual-tools/11.0.3/libnvvp:/burg/opt/openmpi-4.1.1_ucx_cuda_11.0.3_support/lib:/cm/shared/apps/slurm/current/lib64/slurm:/cm/shared/apps/slurm/current/lib64
Slurm Job ID is: 1845618
Slurm Job name is: wb97x-d-radical-dmf_opt
g068

                                 *****************
                                 * O   R   C   A *
                                 *****************

                                            #,                                       
                                            ###                                      
                                            ####                                     
                                            #####                                    
                                            ######                                   
                                           ########,                                 
                                     ,,################,,,,,                         
                               ,,#################################,,                 
                          ,,##########################################,,             
                       ,#########################################, ''#####,          
                    ,#############################################,,   '####,        
                  ,##################################################,,,,####,       
                ,###########''''           ''''###############################       
              ,#####''   ,,,,##########,,,,          '''####'''          '####       
            ,##' ,,,,###########################,,,                        '##       
           ' ,,###''''                  '''############,,,                           
         ,,##''                                '''############,,,,        ,,,,,,###''
      ,#''                                            '''#######################'''  
     '                                                          ''''####''''         
             ,#######,   #######,   ,#######,      ##                                
            ,#'     '#,  ##    ##  ,#'     '#,    #''#        ######   ,####,        
            ##       ##  ##   ,#'  ##            #'  '#       #        #'  '#        
            ##       ##  #######   ##           ,######,      #####,   #    #        
            '#,     ,#'  ##    ##  '#,     ,#' ,#      #,         ##   #,  ,#        
             '#######'   ##     ##  '#######'  #'      '#     #####' # '####'        



                  #######################################################
                  #                        -***-                        #
                  #          Department of theory and spectroscopy      #
                  #    Directorship and core code : Frank Neese         #
                  #        Max Planck Institute fuer Kohlenforschung    #
                  #                Kaiser Wilhelm Platz 1               #
                  #                 D-45470 Muelheim/Ruhr               #
                  #                      Germany                        #
                  #                                                     #
                  #                  All rights reserved                #
                  #                        -***-                        #
                  #######################################################


                         Program Version 5.0.3 -  RELEASE  -


 With contributions from (in alphabetic order):
   Daniel Aravena         : Magnetic Suceptibility
   Michael Atanasov       : Ab Initio Ligand Field Theory (pilot matlab implementation)
   Alexander A. Auer      : GIAO ZORA, VPT2 properties, NMR spectrum
   Ute Becker             : Parallelization
   Giovanni Bistoni       : ED, misc. LED, open-shell LED, HFLD
   Martin Brehm           : Molecular dynamics
   Dmytro Bykov           : SCF Hessian
   Vijay G. Chilkuri      : MRCI spin determinant printing, contributions to CSF-ICE
   Dipayan Datta          : RHF DLPNO-CCSD density
   Achintya Kumar Dutta   : EOM-CC, STEOM-CC
   Dmitry Ganyushin       : Spin-Orbit,Spin-Spin,Magnetic field MRCI
   Miquel Garcia          : C-PCM and meta-GGA Hessian, CC/C-PCM, Gaussian charge scheme
   Yang Guo               : DLPNO-NEVPT2, F12-NEVPT2, CIM, IAO-localization
   Andreas Hansen         : Spin unrestricted coupled pair/coupled cluster methods
   Benjamin Helmich-Paris : MC-RPA, TRAH-SCF, COSX integrals
   Lee Huntington         : MR-EOM, pCC
   Robert Izsak           : Overlap fitted RIJCOSX, COSX-SCS-MP3, EOM
   Marcus Kettner         : VPT2
   Christian Kollmar      : KDIIS, OOCD, Brueckner-CCSD(T), CCSD density, CASPT2, CASPT2-K
   Simone Kossmann        : Meta GGA functionals, TD-DFT gradient, OOMP2, MP2 Hessian
   Martin Krupicka        : Initial AUTO-CI
   Lucas Lang             : DCDCAS
   Marvin Lechner         : AUTO-CI (C++ implementation), FIC-MRCC
   Dagmar Lenk            : GEPOL surface, SMD
   Dimitrios Liakos       : Extrapolation schemes; Compound Job, initial MDCI parallelization
   Dimitrios Manganas     : Further ROCIS development; embedding schemes
   Dimitrios Pantazis     : SARC Basis sets
   Anastasios Papadopoulos: AUTO-CI, single reference methods and gradients
   Taras Petrenko         : DFT Hessian,TD-DFT gradient, ASA, ECA, R-Raman, ABS, FL, XAS/XES, NRVS
   Peter Pinski           : DLPNO-MP2, DLPNO-MP2 Gradient
   Christoph Reimann      : Effective Core Potentials
   Marius Retegan         : Local ZFS, SOC
   Christoph Riplinger    : Optimizer, TS searches, QM/MM, DLPNO-CCSD(T), (RO)-DLPNO pert. Triples
   Tobias Risthaus        : Range-separated hybrids, TD-DFT gradient, RPA, STAB
   Michael Roemelt        : Original ROCIS implementation
   Masaaki Saitow         : Open-shell DLPNO-CCSD energy and density
   Barbara Sandhoefer     : DKH picture change effects
   Avijit Sen             : IP-ROCIS
   Kantharuban Sivalingam : CASSCF convergence, NEVPT2, FIC-MRCI
   Bernardo de Souza      : ESD, SOC TD-DFT
   Georgi Stoychev        : AutoAux, RI-MP2 NMR, DLPNO-MP2 response
   Willem Van den Heuvel  : Paramagnetic NMR
   Boris Wezisla          : Elementary symmetry handling
   Frank Wennmohs         : Technical directorship


 We gratefully acknowledge several colleagues who have allowed us to
 interface, adapt or use parts of their codes:
   Stefan Grimme, W. Hujo, H. Kruse, P. Pracht,  : VdW corrections, initial TS optimization,
                  C. Bannwarth, S. Ehlert          DFT functionals, gCP, sTDA/sTD-DF
   Ed Valeev, F. Pavosevic, A. Kumar             : LibInt (2-el integral package), F12 methods
   Garnet Chan, S. Sharma, J. Yang, R. Olivares  : DMRG
   Ulf Ekstrom                                   : XCFun DFT Library
   Mihaly Kallay                                 : mrcc  (arbitrary order and MRCC methods)
   Jiri Pittner, Ondrej Demel                    : Mk-CCSD
   Frank Weinhold                                : gennbo (NPA and NBO analysis)
   Christopher J. Cramer and Donald G. Truhlar   : smd solvation model
   Lars Goerigk                                  : TD-DFT with DH, B97 family of functionals
   V. Asgeirsson, H. Jonsson                     : NEB implementation
   FAccTs GmbH                                   : IRC, NEB, NEB-TS, DLPNO-Multilevel, CI-OPT
                                                   MM, QMMM, 2- and 3-layer-ONIOM, Crystal-QMMM,
                                                   LR-CPCM, SF, NACMEs, symmetry and pop. for TD-DFT,
                                                   nearIR, NL-DFT gradient (VV10), updates on ESD,
                                                   ML-optimized integration grids
   S Lehtola, MJT Oliveira, MAL Marques          : LibXC Library
   Liviu Ungur et al                             : ANISO software


 Your calculation uses the libint2 library for the computation of 2-el integrals
 For citations please refer to: http://libint.valeyev.net

 Your ORCA version has been built with support for libXC version: 5.1.0
 For citations please refer to: https://tddft.org/programs/libxc/

 This ORCA versions uses:
   CBLAS   interface :  Fast vector & matrix operations
   LAPACKE interface :  Fast linear algebra routines
   SCALAPACK package :  Parallel linear algebra routines
   Shared memory     :  Shared parallel matrices
   BLAS/LAPACK       :  OpenBLAS 0.3.15  USE64BITINT DYNAMIC_ARCH NO_AFFINITY SkylakeX SINGLE_THREADED
        Core in use  :  SkylakeX
   Copyright (c) 2011-2014, The OpenBLAS Project


Your calculation utilizes the atom-pairwise dispersion correction
with the zero-damping scheme (D30)
Cite in your paper:
S.Grimme, J.Antony, S.Ehrlich and H.Krieg, J.Chem.Phys., 132, (2010), 154104 
   

Your calculation utilizes the SMD solvation module
Please cite in your paper:
A.V. Marenich, C.J. Cramer, D.G. Truhlar J. Phys. Chem. B, 113, (2009), 6378 

XCFun DFT library Copyright 2009-2010 Ulf Ekstrom and contributors.
See http://admol.org/xcfun for more information.
This is free software; see the source code for copying conditions.
There is ABSOLUTELY NO WARRANTY; not even for MERCHANTABILITY or FITNESS FOR A PARTICULAR PURPOSE.
For details see the documentation.
Scientific users of this library should cite U. Ekstrom, L. Visscher, R. Bast, A. J. Thorvaldsen and K. Ruud;
J.Chem.Theor.Comp. 2010, DOI: 10.1021/ct100117s
XCFun Version 0.99 

================================================================================

----- Orbital basis set information -----
Your calculation utilizes the basis: def2-TZVP
   F. Weigend and R. Ahlrichs, Phys. Chem. Chem. Phys. 7, 3297 (2005).

----- AuxJ basis set information -----
Your calculation utilizes the auxiliary basis: def2/J
   F. Weigend, Phys. Chem. Chem. Phys. 8, 1057 (2006).

================================================================================
                                        WARNINGS
                       Please study these warnings very carefully!
================================================================================


WARNING: Geometry Optimization
  ===> : Switching off AutoStart
         For restart on a previous wavefunction, please use MOREAD

INFO   : the flag for use of the SHARK integral package has been found!

================================================================================
                                       INPUT FILE
================================================================================
NAME = /burg/berkelbach/users/eav2136/projects/peroxide_dissociation/05_range_separated_functional/wb97x-d-radical-dmf/wb97x-d-radical-dmf_opt.inp
|  1> ! UKS wB97X-D3 def2-TZVP TIGHTSCF Opt CPCM PAL8
|  2> %maxcore 5000
|  3> %cpcm
|  4> smd true
|  5> SMDsolvent "DMF"
|  6> end
|  7> * xyz 0 2
|  8>  C -0.07425707479814 6.45007760366319 3.54636897867849
|  9>  S 1.48979584793712 6.08048225687873 2.75598260255209
| 10>  C 1.14936654141856 4.63662227087222 1.83369205968326
| 11>  C -0.09136557109480 4.00305286554088 1.79338352444578
| 12>  C -0.25826928718407 2.84269542505768 1.05936282240646
| 13>  C 0.80050967676942 2.30271389692801 0.33923873907232
| 14>  C 2.02875697338567 2.96040825022008 0.34201900047512
| 15>  C 2.20764771123846 4.10330343094754 1.09121055149825
| 16>  C 0.66254428710301 1.09941809961861 -0.50690159852297
| 17>  O 0.00000000000000 0.00000000000000 0.00000000000000
| 18>  O 1.06713866538631 0.98717129960580 -1.62357736506780
| 19>  H 0.10416325535368 7.34607684664392 4.14087383255362
| 20>  H -0.38882275224257 5.64387294862163 4.21002028523424
| 21>  H -0.85323854703301 6.66443357654391 2.81385647784552
| 22>  H -0.93700004363157 4.40513362395569 2.33421606140266
| 23>  H -1.23507439683237 2.37497021944690 1.02749021968162
| 24>  H 2.84544686618639 2.55882587909200 -0.24576673820719
| 25>  H 3.17295340310622 4.59670965109571 1.10248346369500
| 26> *
| 27> 
| 28>                          ****END OF INPUT****
================================================================================

                       *****************************
                       * Geometry Optimization Run *
                       *****************************

Geometry optimization settings:
Update method            Update   .... BFGS
Choice of coordinates    CoordSys .... Z-matrix Internals
Initial Hessian          InHess   .... Almoef's Model

Convergence Tolerances:
Energy Change            TolE     ....  5.0000e-06 Eh
Max. Gradient            TolMAXG  ....  3.0000e-04 Eh/bohr
RMS Gradient             TolRMSG  ....  1.0000e-04 Eh/bohr
Max. Displacement        TolMAXD  ....  4.0000e-03 bohr
RMS Displacement         TolRMSD  ....  2.0000e-03 bohr
Strict Convergence                ....  False
------------------------------------------------------------------------------
                        ORCA OPTIMIZATION COORDINATE SETUP
------------------------------------------------------------------------------

The optimization will be done in new redundant internal coordinates
Making redundant internal coordinates   ...  (new redundants) done
Evaluating the initial hessian          ...  (Almloef) done
Evaluating the coordinates              ...  done
Calculating the B-matrix                .... done
Calculating the G-matrix                .... done
Diagonalizing the G-matrix              .... done
Small eigenvalue found = 1.379e-02
The first mode is                       ....   31
The number of degrees of freedom        ....   48

    -----------------------------------------------------------------
                    Redundant Internal Coordinates


    -----------------------------------------------------------------
         Definition                    Initial Value    Approx d2E/dq
    -----------------------------------------------------------------
      1. B(S   1,C   0)                  1.7910         0.386175   
      2. B(C   2,S   1)                  1.7468         0.454240   
      3. B(C   3,C   2)                  1.3937         0.616320   
      4. B(C   4,C   3)                  1.3831         0.640745   
      5. B(C   5,C   4)                  1.3897         0.625563   
      6. B(C   6,C   5)                  1.3933         0.617369   
      7. B(C   7,C   2)                  1.3985         0.605696   
      8. B(C   7,C   6)                  1.3782         0.652421   
      9. B(C   8,C   5)                  1.4775         0.453096   
     10. B(O   9,C   8)                  1.3801         0.580356   
     11. B(O  10,C   8)                  1.1930         1.153901   
     12. B(H  11,C   0)                  1.0900         0.360109   
     13. B(H  12,C   0)                  1.0906         0.359342   
     14. B(H  13,C   0)                  1.0906         0.359351   
     15. B(H  14,C   3)                  1.0813         0.371759   
     16. B(H  15,C   4)                  1.0835         0.368828   
     17. B(H  16,C   6)                  1.0834         0.368946   
     18. B(H  17,C   7)                  1.0842         0.367916   
     19. A(S   1,C   0,H  13)          111.5879         0.342618   
     20. A(S   1,C   0,H  12)          111.5859         0.342616   
     21. A(H  12,C   0,H  13)          110.3658         0.290648   
     22. A(H  11,C   0,H  12)          108.8436         0.290744   
     23. A(S   1,C   0,H  11)          105.5091         0.342738   
     24. A(H  11,C   0,H  13)          108.7656         0.290746   
     25. A(C   0,S   1,C   2)          103.4970         0.419917   
     26. A(S   1,C   2,C   7)          116.6202         0.431369   
     27. A(C   3,C   2,C   7)          119.0102         0.431786   
     28. A(S   1,C   2,C   3)          124.3692         0.432719   
     29. A(C   2,C   3,C   4)          120.2744         0.436178   
     30. A(C   4,C   3,H  14)          118.8821         0.356807   
     31. A(C   2,C   3,H  14)          120.8433         0.354461   
     32. A(C   5,C   4,H  15)          120.2581         0.354880   
     33. A(C   3,C   4,H  15)          119.1145         0.356327   
     34. A(C   3,C   4,C   5)          120.6005         0.437350   
     35. A(C   6,C   5,C   8)          117.8994         0.410112   
     36. A(C   4,C   5,C   8)          122.8259         0.411072   
     37. A(C   4,C   5,C   6)          119.1567         0.434432   
     38. A(C   7,C   6,H  16)          120.2952         0.357442   
     39. A(C   5,C   6,H  16)          119.2412         0.354107   
     40. A(C   5,C   6,C   7)          120.4618         0.437734   
     41. A(C   6,C   7,H  17)          119.9087         0.357272   
     42. A(C   2,C   7,H  17)          119.6508         0.352797   
     43. A(C   2,C   7,C   6)          120.4398         0.436231   
     44. A(O   9,C   8,O  10)          115.5727         0.473849   
     45. A(C   5,C   8,O  10)          125.5219         0.455899   
     46. A(C   5,C   8,O   9)          118.8999         0.403044   
     47. D(C   2,S   1,C   0,H  12)     61.4721         0.003898   
     48. D(C   2,S   1,C   0,H  11)    179.5234         0.003898   
     49. D(C   2,S   1,C   0,H  13)    -62.5176         0.003898   
     50. D(C   7,C   2,S   1,C   0)    179.8441         0.004531   
     51. D(C   3,C   2,S   1,C   0)      0.0768         0.004531   
     52. D(C   4,C   3,C   2,S   1)   -178.3900         0.026266   
     53. D(H  14,C   3,C   2,C   7)   -178.3097         0.026266   
     54. D(H  14,C   3,C   2,S   1)      1.4524         0.026266   
     55. D(C   4,C   3,C   2,C   7)      1.8479         0.026266   
     56. D(H  15,C   4,C   3,H  14)      1.1825         0.028529   
     57. D(H  15,C   4,C   3,C   2)   -178.9720         0.028529   
     58. D(C   5,C   4,C   3,H  14)    179.3028         0.028529   
     59. D(C   5,C   4,C   3,C   2)     -0.8517         0.028529   
     60. D(C   6,C   5,C   4,H  15)    176.7603         0.027109   
     61. D(C   6,C   5,C   4,C   3)     -1.3385         0.027109   
     62. D(C   8,C   5,C   4,H  15)      0.7946         0.027109   
     63. D(C   8,C   5,C   4,C   3)   -177.3042         0.027109   
     64. D(H  16,C   6,C   5,C   8)     -1.7852         0.026361   
     65. D(H  16,C   6,C   5,C   4)   -177.9495         0.026361   
     66. D(C   7,C   6,C   5,C   8)    178.6982         0.026361   
     67. D(C   7,C   6,C   5,C   4)      2.5338         0.026361   
     68. D(H  17,C   7,C   6,H  16)     -0.7379         0.029652   
     69. D(H  17,C   7,C   6,C   5)    178.7736         0.029652   
     70. D(C   2,C   7,C   6,H  16)    178.9472         0.029652   
     71. D(C   2,C   7,C   6,C   5)     -1.5413         0.029652   
     72. D(H  17,C   7,C   2,C   3)    179.0287         0.025317   
     73. D(H  17,C   7,C   2,S   1)     -0.7516         0.025317   
     74. D(C   6,C   7,C   2,C   3)     -0.6572         0.025317   
     75. D(C   6,C   7,C   2,S   1)    179.5625         0.025317   
     76. D(O   9,C   8,C   5,C   6)    137.7156         0.013991   
     77. D(O   9,C   8,C   5,C   4)    -46.2708         0.013991   
     78. D(O  10,C   8,C   5,C   6)    -43.1749         0.013991   
     79. D(O  10,C   8,C   5,C   4)    132.8388         0.013991   
    -----------------------------------------------------------------

Number of atoms                         .... 18
Number of degrees of freedom            .... 79

         *************************************************************
         *                GEOMETRY OPTIMIZATION CYCLE   1            *
         *************************************************************
---------------------------------
CARTESIAN COORDINATES (ANGSTROEM)
---------------------------------
  C     -0.074257    6.450078    3.546369
  S      1.489796    6.080482    2.755983
  C      1.149367    4.636622    1.833692
  C     -0.091366    4.003053    1.793384
  C     -0.258269    2.842695    1.059363
  C      0.800510    2.302714    0.339239
  C      2.028757    2.960408    0.342019
  C      2.207648    4.103303    1.091211
  C      0.662544    1.099418   -0.506902
  O      0.000000    0.000000    0.000000
  O      1.067139    0.987171   -1.623577
  H      0.104163    7.346077    4.140874
  H     -0.388823    5.643873    4.210020
  H     -0.853239    6.664434    2.813856
  H     -0.937000    4.405134    2.334216
  H     -1.235074    2.374970    1.027490
  H      2.845447    2.558826   -0.245767
  H      3.172953    4.596710    1.102483

----------------------------
CARTESIAN COORDINATES (A.U.)
----------------------------
  NO LB      ZA    FRAG     MASS         X           Y           Z
   0 C     6.0000    0    12.011   -0.140326   12.188880    6.701666
   1 S    16.0000    0    32.060    2.815306   11.490446    5.208052
   2 C     6.0000    0    12.011    2.171988    8.761946    3.465176
   3 C     6.0000    0    12.011   -0.172656    7.564674    3.389004
   4 C     6.0000    0    12.011   -0.488058    5.371916    2.001906
   5 C     6.0000    0    12.011    1.512744    4.351499    0.641068
   6 C     6.0000    0    12.011    3.833795    5.594361    0.646322
   7 C     6.0000    0    12.011    4.171850    7.754120    2.062089
   8 C     6.0000    0    12.011    1.252027    2.077599   -0.957905
   9 O     8.0000    0    15.999    0.000000    0.000000    0.000000
  10 O     8.0000    0    15.999    2.016600    1.865483   -3.068117
  11 H     1.0000    0     1.008    0.196840   13.882073    7.825117
  12 H     1.0000    0     1.008   -0.734769   10.665374    7.955785
  13 H     1.0000    0     1.008   -1.612387   12.593954    5.317418
  14 H     1.0000    0     1.008   -1.770673    8.324496    4.411029
  15 H     1.0000    0     1.008   -2.333952    4.488043    1.941675
  16 H     1.0000    0     1.008    5.377115    4.835480   -0.464432
  17 H     1.0000    0     1.008    5.996013    8.686522    2.083392

--------------------------------
INTERNAL COORDINATES (ANGSTROEM)
--------------------------------
 C      0   0   0     0.000000000000     0.00000000     0.00000000
 S      1   0   0     1.790969818017     0.00000000     0.00000000
 C      2   1   0     1.746780929995   103.49703222     0.00000000
 C      3   2   1     1.393718459520   124.36918170     0.07682297
 C      4   3   2     1.383138688329   120.27439762   181.60997218
 C      5   4   3     1.389666017657   120.60050203   359.14829865
 C      6   5   4     1.393255545064   119.15672375   358.66151732
 C      7   6   5     1.378223229504   120.46180539     2.53383799
 C      6   5   4     1.477466986255   122.82593719   182.69580816
 O      9   6   5     1.380084896203   118.89987975   313.72924568
 O      9   6   5     1.193004913083   125.52191253   132.83876530
 H      1   2   3     1.089992880213   105.50910599   179.52342869
 H      1   2   3     1.090573504139   111.58592171    61.47211732
 H      1   2   3     1.090566449636   111.58785041   297.48242808
 H      4   3   2     1.081326236832   120.84329981     1.45240478
 H      5   4   3     1.083480942612   119.11451180   181.02803207
 H      7   6   5     1.083394137146   119.24119758   182.05045369
 H      8   7   6     1.084154903776   119.90872766   178.77361985

---------------------------
INTERNAL COORDINATES (A.U.)
---------------------------
 C      0   0   0     0.000000000000     0.00000000     0.00000000
 S      1   0   0     3.384442470171     0.00000000     0.00000000
 C      2   1   0     3.300937573646   103.49703222     0.00000000
 C      3   2   1     2.633746196283   124.36918170     0.07682297
 C      4   3   2     2.613753326172   120.27439762   181.60997218
 C      5   4   3     2.626088190988   120.60050203   359.14829865
 C      6   5   4     2.632871414738   119.15672375   358.66151732
 C      7   6   5     2.604464455171   120.46180539     2.53383799
 C      6   5   4     2.792007975932   122.82593719   182.69580816
 O      9   6   5     2.607982495384   118.89987975   313.72924568
 O      9   6   5     2.254452562149   125.52191253   132.83876530
 H      1   2   3     2.059788031526   105.50910599   179.52342869
 H      1   2   3     2.060885251733   111.58592171    61.47211732
 H      1   2   3     2.060871920655   111.58785041   297.48242808
 H      4   3   2     2.043410449036   120.84329981     1.45240478
 H      5   4   3     2.047482252859   119.11451180   181.02803207
 H      7   6   5     2.047318214302   119.24119758   182.05045369
 H      8   7   6     2.048755854885   119.90872766   178.77361985

---------------------
BASIS SET INFORMATION
---------------------
There are 4 groups of distinct atoms

 Group   1 Type C   : 11s6p2d1f contracted to 5s3p2d1f pattern {62111/411/11/1}
 Group   2 Type S   : 14s9p3d1f contracted to 5s5p2d1f pattern {73211/51111/21/1}
 Group   3 Type O   : 11s6p2d1f contracted to 5s3p2d1f pattern {62111/411/11/1}
 Group   4 Type H   : 5s1p contracted to 3s1p pattern {311/1}

Atom   0C    basis set group =>   1
Atom   1S    basis set group =>   2
Atom   2C    basis set group =>   1
Atom   3C    basis set group =>   1
Atom   4C    basis set group =>   1
Atom   5C    basis set group =>   1
Atom   6C    basis set group =>   1
Atom   7C    basis set group =>   1
Atom   8C    basis set group =>   1
Atom   9O    basis set group =>   3
Atom  10O    basis set group =>   3
Atom  11H    basis set group =>   4
Atom  12H    basis set group =>   4
Atom  13H    basis set group =>   4
Atom  14H    basis set group =>   4
Atom  15H    basis set group =>   4
Atom  16H    basis set group =>   4
Atom  17H    basis set group =>   4
---------------------------------
AUXILIARY/J BASIS SET INFORMATION
---------------------------------
There are 4 groups of distinct atoms

 Group   1 Type C   : 12s5p4d2f1g contracted to 6s4p3d1f1g pattern {711111/2111/211/2/1}
 Group   2 Type S   : 14s5p5d2f1g contracted to 8s4p3d1f1g pattern {71111111/2111/311/2/1}
 Group   3 Type O   : 12s5p4d2f1g contracted to 6s4p3d1f1g pattern {711111/2111/211/2/1}
 Group   4 Type H   : 5s2p1d contracted to 3s1p1d pattern {311/2/1}

Atom   0C    basis set group =>   1
Atom   1S    basis set group =>   2
Atom   2C    basis set group =>   1
Atom   3C    basis set group =>   1
Atom   4C    basis set group =>   1
Atom   5C    basis set group =>   1
Atom   6C    basis set group =>   1
Atom   7C    basis set group =>   1
Atom   8C    basis set group =>   1
Atom   9O    basis set group =>   3
Atom  10O    basis set group =>   3
Atom  11H    basis set group =>   4
Atom  12H    basis set group =>   4
Atom  13H    basis set group =>   4
Atom  14H    basis set group =>   4
Atom  15H    basis set group =>   4
Atom  16H    basis set group =>   4
Atom  17H    basis set group =>   4


           ************************************************************
           *        Program running with 8 parallel MPI-processes     *
           *              working on a common directory               *
           ************************************************************
------------------------------------------------------------------------------
                           ORCA GTO INTEGRAL CALCULATION
                           -- RI-GTO INTEGRALS CHOSEN --
------------------------------------------------------------------------------
------------------------------------------------------------------------------
                   ___                                                        
                  /   \      - P O W E R E D   B Y -                         
                 /     \                                                     
                 |  |  |   _    _      __       _____    __    __             
                 |  |  |  | |  | |    /  \     |  _  \  |  |  /  |          
                  \  \/   | |  | |   /    \    | | | |  |  | /  /          
                 / \  \   | |__| |  /  /\  \   | |_| |  |  |/  /          
                |  |  |   |  __  | /  /__\  \  |    /   |      \           
                |  |  |   | |  | | |   __   |  |    \   |  |\   \          
                \     /   | |  | | |  |  |  |  | |\  \  |  | \   \       
                 \___/    |_|  |_| |__|  |__|  |_| \__\ |__|  \__/        
                                                                              
                      - O R C A' S   B I G   F R I E N D -                    
                                      &                                       
                       - I N T E G R A L  F E E D E R -                       
                                                                              
 v1 FN, 2020, v2 2021                                                         
------------------------------------------------------------------------------


Reading SHARK input file /burg/berkelbach/users/eav2136/projects/peroxide_dissociation/05_range_separated_functional/wb97x-d-radical-dmf/wb97x-d-radical-dmf_opt.SHARKINP.tmp ... ok
----------------------
SHARK INTEGRAL PACKAGE
----------------------

Number of atoms                             ...     18
Number of basis functions                   ...    389
Number of shells                            ...    151
Maximum angular momentum                    ...      3
Integral batch strategy                     ... SHARK/LIBINT Hybrid
RI-J (if used) integral strategy            ... SPLIT-RIJ (Revised 2003 algorithm where possible)
Printlevel                                  ...      1
Contraction scheme used                     ... SEGMENTED contraction
Coulomb Range Separation                    ... NOT USED
Exchange Range Separation                   ... Long Range
   Mu parameter                             ...  0.250000
   Scaling (regular/separated)              ...  0.195728  0.804272
Finite Nucleus Model                        ... NOT USED
Auxiliary Coulomb fitting basis             ... AVAILABLE
   # of basis functions in Aux-J            ...    618
   # of shells in Aux-J                     ...    202
   Maximum angular momentum in Aux-J        ...      4
Auxiliary J/K fitting basis                 ... NOT available
Auxiliary Correlation fitting basis         ... NOT available
Auxiliary 'external' fitting basis          ... NOT available
Integral threshold                          ...     2.500000e-11
Primitive cut-off                           ...     2.500000e-12
Primitive pair pre-selection threshold      ...     2.500000e-12

Calculating pre-screening integrals         ... done (  0.0 sec) Dimension = 151
Organizing shell pair data                  ... done (  0.1 sec)
Shell pair information
Total number of shell pairs                 ...     11476
Shell pairs after pre-screening             ...      9496
Total number of primitive shell pairs       ...     36592
Primitive shell pairs kept                  ...     21620
          la=0 lb=0:   2303 shell pairs
          la=1 lb=0:   2678 shell pairs
          la=1 lb=1:    796 shell pairs
          la=2 lb=0:   1383 shell pairs
          la=2 lb=1:    801 shell pairs
          la=2 lb=2:    220 shell pairs
          la=3 lb=0:    667 shell pairs
          la=3 lb=1:    390 shell pairs
          la=3 lb=2:    204 shell pairs
          la=3 lb=3:     54 shell pairs

Calculating one electron integrals          ... done (  1.1 sec)
Calculating RI/J V-Matrix + Cholesky decomp.... done (  0.7 sec)
Calculating Nuclear repulsion               ... done (  0.0 sec) ENN=    631.489285915085 Eh

SHARK setup successfully completed in   7.9 seconds

Maximum memory used throughout the entire GTOINT-calculation: 24.2 MB


           ************************************************************
           *        Program running with 8 parallel MPI-processes     *
           *              working on a common directory               *
           ************************************************************
-------------------------------------------------------------------------------
                                 ORCA SCF
-------------------------------------------------------------------------------

------------
SCF SETTINGS
------------
Hamiltonian:
 Density Functional     Method          .... DFT(GTOs)
 Exchange Functional    Exchange        .... WB97X-D3
 Correlation Functional Correlation     .... WB97X-D3
 Gradients option       PostSCFGGA      .... off
 Hybrid DFT is turned on
   Fraction HF Exchange ScalHFX         ....  0.195728
   Scaling of DF-GGA-X  ScalDFX         ....  0.000000
   Scaling of DF-GGA-C  ScalDFC         ....  1.000000
   Scaling of DF-LDA-C  ScalLDAC        ....  1.000000
   Perturbative correction              ....  0.000000
   Density functional embedding theory  .... OFF
 Long-range corrected/Screened/Range-Separated Hybrid DFT is turned on
   Amount of maximum screened exact exchange              ....  0.804272
   Range separation parameter mu (erf(mu*r12)/r12)        ....  0.250000
 RI-approximation to the Coulomb term is turned on
   Number of AuxJ basis functions       .... 618
   RIJ-COSX (HFX calculated with COS-X)).... on


General Settings:
 Integral files         IntName         .... /burg/berkelbach/users/eav2136/projects/peroxide_dissociation/05_range_separated_functional/wb97x-d-radical-dmf/wb97x-d-radical-dmf_opt
 Hartree-Fock type      HFTyp           .... UHF
 Total Charge           Charge          ....    0
 Multiplicity           Mult            ....    2
 Number of Electrons    NEL             ....   87
 Basis Dimension        Dim             ....  389
 Nuclear Repulsion      ENuc            ....    631.4892859151 Eh

Convergence Acceleration:
 DIIS                   CNVDIIS         .... on
   Start iteration      DIISMaxIt       ....    12
   Startup error        DIISStart       ....  0.200000
   # of expansion vecs  DIISMaxEq       ....     5
   Bias factor          DIISBfac        ....   1.050
   Max. coefficient     DIISMaxC        ....  10.000
 Trust-Rad. Augm. Hess. CNVTRAH         .... auto
   Auto Start mean grad. ratio tolernc. ....  1.125000
   Auto Start start iteration           ....    20
   Auto Start num. interpolation iter.  ....    10
   Max. Number of Micro iterations      ....    16
   Max. Number of Macro iterations      .... Maxiter - #DIIS iter
   Number of Davidson start vectors     ....     2
   Converg. threshold I  (grad. norm)   ....   1.000e-05
   Converg. threshold II (energy diff.) ....   1.000e-08
   Grad. Scal. Fac. for Micro threshold ....   0.100
   Minimum threshold for Micro iter.    ....   0.010
   NR start threshold (gradient norm)   ....   0.001
   Initial trust radius                 ....   0.400
   Minimum AH scaling param. (alpha)    ....   1.000
   Maximum AH scaling param. (alpha)    .... 1000.000
   Orbital update algorithm             .... Taylor
   White noise on init. David. guess    .... on
   Maximum white noise                  ....   0.010
   Quad. conv. algorithm                .... NR
 SOSCF                  CNVSOSCF        .... off
 Level Shifting         CNVShift        .... on
   Level shift para.    LevelShift      ....    0.2500
   Turn off err/grad.   ShiftErr        ....    0.0010
 Zerner damping         CNVZerner       .... off
 Static damping         CNVDamp         .... on
   Fraction old density DampFac         ....    0.7000
   Max. Damping (<1)    DampMax         ....    0.9800
   Min. Damping (>=0)   DampMin         ....    0.0000
   Turn off err/grad.   DampErr         ....    0.1000
 Fernandez-Rico         CNVRico         .... off

SCF Procedure:
 Maximum # iterations   MaxIter         ....   125
 SCF integral mode      SCFMode         .... Direct
   Integral package                     .... SHARK and LIBINT hybrid scheme
 Reset frequency        DirectResetFreq ....    20
 Integral Threshold     Thresh          ....  2.500e-11 Eh
 Primitive CutOff       TCut            ....  2.500e-12 Eh

Convergence Tolerance:
 Convergence Check Mode ConvCheckMode   .... Total+1el-Energy
 Convergence forced     ConvForced      .... 0
 Energy Change          TolE            ....  1.000e-08 Eh
 1-El. energy change                    ....  1.000e-05 Eh
 DIIS Error             TolErr          ....  5.000e-07


Diagonalization of the overlap matrix:
Smallest eigenvalue                        ... 7.498e-06
Time for diagonalization                   ...    0.081 sec
Threshold for overlap eigenvalues          ... 1.000e-08
Number of eigenvalues below threshold      ... 0
Time for construction of square roots      ...    0.086 sec
Total time needed                          ...    0.168 sec

Time for model grid setup =    1.604 sec

------------------------------
INITIAL GUESS: MODEL POTENTIAL
------------------------------
Loading Hartree-Fock densities                     ... done
Calculating cut-offs                               ... done
Initializing the effective Hamiltonian             ... done
Setting up the integral package (SHARK)            ... done
Starting the Coulomb interaction                   ... done (   1.1 sec)
Reading the grid                                   ... done
Mapping shells                                     ... done
Starting the XC term evaluation                    ... done (   0.8 sec)
  promolecular density results
     # of electrons  =     87.002319788
     EX              =    -84.142216924
     EC              =     -2.991987125
     EX+EC           =    -87.134204050
Transforming the Hamiltonian                       ... done (   0.0 sec)
Diagonalizing the Hamiltonian                      ... done (   0.0 sec)
Back transforming the eigenvectors                 ... done (   0.0 sec)
Now organizing SCF variables                       ... done
                      ------------------
                      INITIAL GUESS DONE (   3.6 sec)
                      ------------------
-------------------
DFT GRID GENERATION
-------------------

General Integration Accuracy     IntAcc      ... 4.388
Radial Grid Type                 RadialGrid  ... OptM3 with GC (2021)
Angular Grid (max. ang.)         AngularGrid ... 4 (Lebedev-302)
Angular grid pruning method      GridPruning ... 4 (adaptive)
Weight generation scheme         WeightScheme... Becke
Basis function cutoff            BFCut       ... 1.0000e-11
Integration weight cutoff        WCut        ... 1.0000e-14
Angular grids for H and He will be reduced by one unit
Partially contracted basis set               ... off
Rotationally invariant grid construction     ... off

Total number of grid points                  ...    90151
Total number of batches                      ...     1417
Average number of points per batch           ...       63
Average number of grid points per atom       ...     5008
Time for grid setup =    0.457 sec

--------------------
COSX GRID GENERATION
--------------------

GRIDX 1
-------
General Integration Accuracy     IntAcc      ... 3.816
Radial Grid Type                 RadialGrid  ... OptM3 with GC (2021)
Angular Grid (max. ang.)         AngularGrid ... 1 (Lebedev-50)
Angular grid pruning method      GridPruning ... 4 (adaptive)
Weight generation scheme         WeightScheme... Becke
Basis function cutoff            BFCut       ... 1.0000e-11
Integration weight cutoff        WCut        ... 1.0000e-14
Angular grids for H and He will be reduced by one unit
Partially contracted basis set               ... on
Rotationally invariant grid construction     ... off

Total number of grid points                  ...    11402
Total number of batches                      ...      186
Average number of points per batch           ...       61
Average number of grid points per atom       ...      633
UseSFitting                                  ... on

GRIDX 2
-------
General Integration Accuracy     IntAcc      ... 4.020
Radial Grid Type                 RadialGrid  ... OptM3 with GC (2021)
Angular Grid (max. ang.)         AngularGrid ... 2 (Lebedev-110)
Angular grid pruning method      GridPruning ... 4 (adaptive)
Weight generation scheme         WeightScheme... Becke
Basis function cutoff            BFCut       ... 1.0000e-11
Integration weight cutoff        WCut        ... 1.0000e-14
Angular grids for H and He will be reduced by one unit
Partially contracted basis set               ... on
Rotationally invariant grid construction     ... off

Total number of grid points                  ...    25317
Total number of batches                      ...      406
Average number of points per batch           ...       62
Average number of grid points per atom       ...     1406
UseSFitting                                  ... on

GRIDX 3
-------
General Integration Accuracy     IntAcc      ... 4.338
Radial Grid Type                 RadialGrid  ... OptM3 with GC (2021)
Angular Grid (max. ang.)         AngularGrid ... 3 (Lebedev-194)
Angular grid pruning method      GridPruning ... 4 (adaptive)
Weight generation scheme         WeightScheme... Becke
Basis function cutoff            BFCut       ... 1.0000e-11
Integration weight cutoff        WCut        ... 1.0000e-14
Angular grids for H and He will be reduced by one unit
Partially contracted basis set               ... on
Rotationally invariant grid construction     ... off

Total number of grid points                  ...    56227
Total number of batches                      ...      886
Average number of points per batch           ...       63
Average number of grid points per atom       ...     3124
UseSFitting                                  ... on

Time for X-Grid setup             =    0.565 sec


--------------------
CPCM SOLVATION MODEL
--------------------
CPCM parameters:
  Epsilon                                         ...      37.2190
  Refrac                                          ...       1.4305
  Rsolv                                           ...       1.3000
  Surface type                                    ... GAUSSIAN VDW
  Epsilon function type                           ...         CPCM
Solvent:                                     ... DMF
SMD-CDS solvent descriptors:
  Soln                                       ...    1.4305
  Soln25                                     ...    1.4280
  Sola                                       ...    0.0000
  Solb                                       ...    0.7400
  Solg                                       ...   49.5600
  Solc                                       ...    0.0000
  Solh                                       ...    0.0000
Radii:
 Radius for C  used is    3.4960 Bohr (=   1.8500 Ang.)
 Radius for S  used is    4.7054 Bohr (=   2.4900 Ang.)
 Radius for O  used is    4.3350 Bohr (=   2.2940 Ang.)
 Radius for H  used is    2.2677 Bohr (=   1.2000 Ang.)
Calculating surface                               ...        done! (  0.0s)
GEPOL surface points                              ...          997
GEPOL Volume                                      ...    1476.6496
GEPOL Surface-area                                ...     790.7080
Calculating surface distance matrix               ...        done! (  0.0s)
Performing Cholesky decomposition & store         ...        done! (  0.0s)
Overall time for CPCM initialization              ...                 0.3s
--------------
SCF ITERATIONS
--------------
ITER       Energy         Delta-E        Max-DP      RMS-DP      [F,P]     Damp
               ***  Starting incremental Fock matrix formation  ***
  0   -857.2721493049   0.000000000000 0.20745257  0.00108641  0.1697596 0.7000
  1   -857.4442950636  -0.172145758681 0.20960315  0.00102055  0.0785690 0.7000
                               ***Turning on DIIS***
  2   -857.5232625055  -0.078967441890 0.33508422  0.00170884  0.0297330 0.0000
  3   -857.6491762309  -0.125913725404 0.17611288  0.00086599  0.0495946 0.0000
  4   -857.6746043321  -0.025428101239 0.03476772  0.00022356  0.0048844 0.0000
  5   -857.6764326450  -0.001828312880 0.02568500  0.00014977  0.0066826 0.0000
  6   -857.6773016205  -0.000868975505 0.01294560  0.00008409  0.0023311 0.0000
  7   -857.6778664947  -0.000564874220 0.01196063  0.00007061  0.0019838 0.0000
  8   -857.6782599507  -0.000393456027 0.00916704  0.00005380  0.0017752 0.0000
  9   -857.6785627085  -0.000302757782 0.00879938  0.00004942  0.0015295 0.0000
 10   -857.6788055616  -0.000242853100 0.00728440  0.00004143  0.0013613 0.0000
 11   -857.6789998791  -0.000194317433 0.00840739  0.00004489  0.0013481 0.0000
 12   -857.6791699145  -0.000170035486 0.00537213  0.00003128  0.0014315 0.0000
 13   -857.6793051948  -0.000135280260 0.00728617  0.00003861  0.0013410 0.0000
 14   -857.6794376080  -0.000132413154 0.00642387  0.00003446  0.0013910 0.0000
 15   -857.6795610652  -0.000123457204 0.00403546  0.00002215  0.0013726 0.0000
 16   -857.6796484414  -0.000087376275 0.00103337  0.00000739  0.0013045 0.0000
 17   -857.6796616558  -0.000013214321 0.00077266  0.00000418  0.0015150 0.0000
 18   -857.6796684317  -0.000006775976 0.00090970  0.00000556  0.0018488 0.0000
 19   -857.6796914556  -0.000023023840 0.00243992  0.00001236  0.0019106 0.0000
               *** Restarting incremental Fock matrix formation ***
                                   *** Resetting DIIS ***

 WARNING: the maximum gradient error descreased on average only by a factor   1.0
          during the last 20 iterations

                      *** Initiating the TRAH-SCF procedure ***


TRAH GRIDX
----------

General Integration Accuracy     IntAcc      ... 3.067
Radial Grid Type                 RadialGrid  ... OptM3 with GC (2021)
Angular Grid (max. ang.)         AngularGrid ... 1 (Lebedev-50)
Angular grid pruning method      GridPruning ... 4 (adaptive)
Weight generation scheme         WeightScheme... Becke
Basis function cutoff            BFCut       ... 1.0000e-11
Integration weight cutoff        WCut        ... 1.0000e-14
Angular grids for H and He will be reduced by one unit
Partially contracted basis set               ... on
Rotationally invariant grid construction     ... off

Total number of grid points                  ...     6144
Total number of batches                      ...      108
Average number of points per batch           ...       56
Average number of grid points per atom       ...      341


TRAH GRID
---------

General Integration Accuracy     IntAcc      ... 3.467
Radial Grid Type                 RadialGrid  ... OptM3 with GC (2021)
Angular Grid (max. ang.)         AngularGrid ... 1 (Lebedev-50)
Angular grid pruning method      GridPruning ... 4 (adaptive)
Weight generation scheme         WeightScheme... Becke
Basis function cutoff            BFCut       ... 1.0000e-11
Integration weight cutoff        WCut        ... 1.0000e-14
Angular grids for H and He will be reduced by one unit
Partially contracted basis set               ... off
Rotationally invariant grid construction     ... off

Total number of grid points                  ...    13278
Total number of batches                      ...      215
Average number of points per batch           ...       61
Average number of grid points per atom       ...      738

 --------------------------------------------------------------------------------------------
   Iter.        energy            ||Error||_2        Shift      TRadius  Mac/Mic        Rej.
 --------------------------------------------------------------------------------------------
    0       -857.679725715600     6.805063e-03                     0.400 (TRAH MAcro)   No
    0     dE    -2.778638e-05     1.508244e-02    -2.7786e-05      0.004 (TRAH MIcro)
    0     dE    -3.451736e-03     7.646553e-02    -1.3868e-02      0.366 (TRAH MIcro)
    0     dE    -4.547228e-03     1.589250e-02    -1.7324e-02      0.400 (TRAH MIcro)
    0     dE    -4.662090e-03     9.210409e-03    -1.7927e-02      0.400 (TRAH MIcro)
    0     dE    -4.689118e-03     4.585776e-03    -1.8079e-02      0.400 (TRAH MIcro)
    0     dE    -4.698426e-03     2.964677e-03    -1.8145e-02      0.400 (TRAH MIcro)
    0     dE    -4.700939e-03     1.358003e-03    -1.8160e-02      0.400 (TRAH MIcro)
    0     dE    -4.701585e-03     8.191599e-04    -1.8165e-02      0.400 (TRAH MIcro)
    0     dE    -4.701797e-03     3.787587e-04    -1.8168e-02      0.400 (TRAH MIcro)
    1       -857.685405006008     2.691968e-02                     0.480 (TRAH MAcro)   No
    1     dE    -2.708217e-04     4.694743e-02    -2.7079e-04      0.010 (TRAH MIcro)
    1     dE    -1.234956e-02     6.598314e-02    -2.7644e-02      0.480 (TRAH MIcro)
    1     dE    -1.485091e-02     2.552276e-02    -3.8512e-02      0.480 (TRAH MIcro)
    1     dE    -1.292726e-02     1.124330e-02    -4.5071e-02      0.415 (TRAH MIcro)
    1     dE    -1.309139e-02     5.415684e-03    -4.5272e-02      0.418 (TRAH MIcro)
    1     dE    -1.319847e-02     3.085568e-03    -4.5346e-02      0.420 (TRAH MIcro)
    1     dE    -1.319769e-02     1.539699e-03    -4.5362e-02      0.420 (TRAH MIcro)
    2       -857.696502729509     2.017029e-02                     0.576 (TRAH MAcro)   No
    2     dE    -1.957061e-04     3.512601e-02    -1.9569e-04      0.010 (TRAH MIcro)
    2     dE    -2.207539e-03     5.682706e-02    -2.1541e-03      0.158 (TRAH MIcro)
    2     dE    -3.837277e-03     2.813662e-02    -3.5595e-03      0.279 (TRAH MIcro)
    2     dE    -4.347620e-03     1.512779e-02    -3.9508e-03      0.317 (TRAH MIcro)
    2     dE    -4.526292e-03     7.476106e-03    -4.0796e-03      0.331 (TRAH MIcro)
    2     dE    -4.601333e-03     6.571967e-03    -4.1329e-03      0.337 (TRAH MIcro)
    2     dE    -4.697218e-03     6.603201e-03    -4.1968e-03      0.345 (TRAH MIcro)
    2     dE    -4.755670e-03     5.304097e-03    -4.2336e-03      0.351 (TRAH MIcro)
    2     dE    -4.782064e-03     2.735991e-03    -4.2496e-03      0.354 (TRAH MIcro)
    2     dE    -4.793293e-03     2.158311e-03    -4.2558e-03      0.355 (TRAH MIcro)
    2     dE    -4.799603e-03     1.651243e-03    -4.2590e-03      0.356 (TRAH MIcro)
    3       -857.699418672052     3.213886e-02                     0.576 (TRAH MAcro)   No
    3     dE    -3.058189e-04     5.005325e-02    -3.0579e-04      0.010 (TRAH MIcro)
    3     dE    -6.976167e-04     2.065437e-02    -6.9675e-04      0.035 (TRAH MIcro)
    3     dE    -8.028772e-04     5.907304e-03    -8.0044e-04      0.055 (TRAH MIcro)
    3     dE    -8.227247e-04     3.902543e-03    -8.1972e-04      0.061 (TRAH MIcro)
    3     dE    -8.294129e-04     1.805085e-03    -8.2617e-04      0.063 (TRAH MIcro)
    4       -857.700293402440     2.554738e-03                     0.691 (TRAH MAcro)   No
    4     dE    -5.835171e-07     4.782797e-03    -5.8352e-07      0.000 (TRAH MIcro)
    4     dE    -9.361810e-06     3.601768e-03    -9.3615e-06      0.006 (TRAH MIcro)
    4     dE    -1.558330e-05     1.729764e-03    -1.5581e-05      0.013 (TRAH MIcro)
    4     dE    -1.702878e-05     7.104525e-04    -1.7025e-05      0.015 (TRAH MIcro)
    4     dE    -1.754630e-05     4.860491e-04    -1.7542e-05      0.015 (TRAH MIcro)
    4     dE    -1.772366e-05     3.274334e-04    -1.7719e-05      0.015 (TRAH MIcro)
    4     dE    -1.786042e-05     2.735135e-04    -1.7856e-05      0.016 (TRAH MIcro)
    4     dE    -1.789726e-05     1.368092e-04    -1.7893e-05      0.016 (TRAH MIcro)
    5       -857.700311591685     1.961592e-04                           (NR   MAcro)
    5     dE    -1.562647e-08     6.473325e-05                           (NR   MIcro)
    5     dE    -2.309943e-08     7.113962e-05                           (NR   MIcro)
    5     dE    -2.571281e-08     4.192638e-05                           (NR   MIcro)
    5     dE    -2.749854e-08     3.713814e-05                           (NR   MIcro)
    5     dE    -2.872933e-08     3.294532e-05                           (NR   MIcro)
    5     dE    -2.945697e-08     1.972802e-05                           (NR   MIcro)
    5     dE    -2.982188e-08     1.810094e-05                           (NR   MIcro)
    5     dE    -3.010127e-08     1.254341e-05                           (NR   MIcro)
    5     dE    -3.023802e-08     1.081769e-05                           (NR   MIcro)
    5     dE    -3.037269e-08     9.565657e-06                           (NR   MIcro)
    5     dE    -3.042378e-08     5.303498e-06                           (NR   MIcro)
    5     dE    -3.044409e-08     3.342553e-06                           (NR   MIcro)
    5     dE    -3.045032e-08     1.812767e-06                           (NR   MIcro)
    5     dE    -3.045160e-08     5.485884e-07                           (NR   MIcro)
    6       -857.700311623040     2.571467e-06                           (NR   MAcro)
    6     dE    -1.828419e-12     5.676392e-07                           (NR   MIcro)
    7       -857.700311623027     5.749283e-07                           (NR   MAcro)

               *****************************************************
               *                     SUCCESS                       *
               *           SCF CONVERGED AFTER  83 CYCLES          *
               *****************************************************

Old exchange energy                            =    -26.079266088 Eh
New exchange energy                            =    -26.079253591 Eh
Exchange energy change after final integration =      0.000012497 Eh
Total energy after final integration           =   -857.700299126 Eh
Final COS-X integration done in                =     9.739 sec

SMD CDS free energy correction energy :                -3.13233     Kcal/mol
Total Energy after SMD CDS correction =              -857.705290806 Eh

----------------
TOTAL SCF ENERGY
----------------

Total Energy       :         -857.70529081 Eh          -23339.34751 eV

Components:
Nuclear Repulsion  :          631.48928592 Eh           17183.69707 eV
Electronic Energy  :        -1489.19457672 Eh          -40523.04458 eV
One Electron Energy:        -2426.93007019 Eh          -66040.12462 eV
Two Electron Energy:          937.73549347 Eh           25517.08004 eV
Max COSX asymmetry :            0.00000040 Eh               0.00001 eV
CPCM Dielectric    :           -0.01446247 Eh              -0.39354 eV
SMD CDS (Gcds)     :           -0.00499168 Eh              -0.13583 eV

Virial components:
Potential Energy   :        -1712.78765299 Eh          -46607.32151 eV
Kinetic Energy     :          855.08236218 Eh           23267.97400 eV
Virial Ratio       :            2.00306746


DFT components:
N(Alpha)           :       44.000018604795 electrons
N(Beta)            :       43.000017878848 electrons
N(Total)           :       87.000036483643 electrons
E(XC)              :      -62.724305446107 Eh       
DFET-embed. en.    :        0.000000000000 Eh       
CPCM Solvation Model Properties:
Surface-charge          :           -0.02269534
Charge-correction       :            0.00030732 Eh               0.00836 eV
Free-energy (cav+disp)  :           -0.00499168 Eh              -0.13583 eV

---------------
SCF CONVERGENCE
---------------

  Last Energy change         ...    1.2392e-11  Tolerance :   1.0000e-08
  Last Orbital Gradient      ...    5.7493e-07  Tolerance :   1.0000e-05
  Last Orbital Rotation      ...    1.1202e-06

             **** THE GBW FILE WAS UPDATED (/burg/berkelbach/users/eav2136/projects/peroxide_dissociation/05_range_separated_functional/wb97x-d-radical-dmf/wb97x-d-radical-dmf_opt.gbw) ****
             **** DENSITY /burg/berkelbach/users/eav2136/projects/peroxide_dissociation/05_range_separated_functional/wb97x-d-radical-dmf/wb97x-d-radical-dmf_opt.scfp WAS UPDATED ****
             **** ENERGY FILE WAS UPDATED (/burg/berkelbach/users/eav2136/projects/peroxide_dissociation/05_range_separated_functional/wb97x-d-radical-dmf/wb97x-d-radical-dmf_opt.en.tmp) ****
----------------------
UHF SPIN CONTAMINATION
----------------------

Warning: in a DFT calculation there is little theoretical justification to 
         calculate <S**2> as in Hartree-Fock theory. We will do it anyways
         but you should keep in mind that the values have only limited relevance

Expectation value of <S**2>     :     0.755830
Ideal value S*(S+1) for S=0.5   :     0.750000
Deviation                       :     0.005830

             **** THE GBW FILE WAS UPDATED (/burg/berkelbach/users/eav2136/projects/peroxide_dissociation/05_range_separated_functional/wb97x-d-radical-dmf/wb97x-d-radical-dmf_opt.gbw) ****
             **** DENSITY /burg/berkelbach/users/eav2136/projects/peroxide_dissociation/05_range_separated_functional/wb97x-d-radical-dmf/wb97x-d-radical-dmf_opt.scfp WAS UPDATED ****
----------------
ORBITAL ENERGIES
----------------
                 SPIN UP ORBITALS
  NO   OCC          E(Eh)            E(eV) 
   0   1.0000     -88.959177     -2420.7023 
   1   1.0000     -19.328498      -525.9552 
   2   1.0000     -19.251784      -523.8677 
   3   1.0000     -10.430057      -283.8163 
   4   1.0000     -10.331124      -281.1242 
   5   1.0000     -10.307311      -280.4762 
   6   1.0000     -10.301718      -280.3240 
   7   1.0000     -10.299548      -280.2649 
   8   1.0000     -10.296449      -280.1806 
   9   1.0000     -10.291749      -280.0527 
  10   1.0000     -10.290546      -280.0200 
  11   1.0000      -8.056257      -219.2219 
  12   1.0000      -6.010146      -163.5444 
  13   1.0000      -6.006029      -163.4323 
  14   1.0000      -6.001694      -163.3144 
  15   1.0000      -1.240351       -33.7517 
  16   1.0000      -1.140931       -31.0463 
  17   1.0000      -1.006711       -27.3940 
  18   1.0000      -0.938604       -25.5407 
  19   1.0000      -0.883106       -24.0305 
  20   1.0000      -0.874365       -23.7927 
  21   1.0000      -0.789484       -21.4830 
  22   1.0000      -0.738256       -20.0890 
  23   1.0000      -0.719831       -19.5876 
  24   1.0000      -0.680365       -18.5137 
  25   1.0000      -0.644079       -17.5263 
  26   1.0000      -0.598696       -16.2913 
  27   1.0000      -0.585174       -15.9234 
  28   1.0000      -0.582200       -15.8425 
  29   1.0000      -0.557918       -15.1817 
  30   1.0000      -0.554257       -15.0821 
  31   1.0000      -0.535808       -14.5801 
  32   1.0000      -0.532279       -14.4840 
  33   1.0000      -0.515491       -14.0272 
  34   1.0000      -0.498093       -13.5538 
  35   1.0000      -0.491193       -13.3660 
  36   1.0000      -0.466420       -12.6919 
  37   1.0000      -0.450821       -12.2675 
  38   1.0000      -0.444955       -12.1078 
  39   1.0000      -0.420407       -11.4399 
  40   1.0000      -0.412502       -11.2248 
  41   1.0000      -0.394771       -10.7423 
  42   1.0000      -0.359738        -9.7890 
  43   1.0000      -0.304385        -8.2827 
  44   0.0000       0.020361         0.5540 
  45   0.0000       0.050420         1.3720 
  46   0.0000       0.101611         2.7650 
  47   0.0000       0.108589         2.9549 
  48   0.0000       0.136279         3.7084 
  49   0.0000       0.157387         4.2827 
  50   0.0000       0.167924         4.5694 
  51   0.0000       0.172446         4.6925 
  52   0.0000       0.186455         5.0737 
  53   0.0000       0.191603         5.2138 
  54   0.0000       0.195563         5.3215 
  55   0.0000       0.210656         5.7322 
  56   0.0000       0.216725         5.8974 
  57   0.0000       0.224712         6.1147 
  58   0.0000       0.227232         6.1833 
  59   0.0000       0.252607         6.8738 
  60   0.0000       0.255665         6.9570 
  61   0.0000       0.279540         7.6067 
  62   0.0000       0.295197         8.0327 
  63   0.0000       0.297486         8.0950 
  64   0.0000       0.301380         8.2010 
  65   0.0000       0.307918         8.3789 
  66   0.0000       0.314337         8.5536 
  67   0.0000       0.319354         8.6901 
  68   0.0000       0.328042         8.9265 
  69   0.0000       0.333701         9.0805 
  70   0.0000       0.338037         9.1985 
  71   0.0000       0.360958         9.8222 
  72   0.0000       0.365993         9.9592 
  73   0.0000       0.376101        10.2342 
  74   0.0000       0.387043        10.5320 
  75   0.0000       0.399061        10.8590 
  76   0.0000       0.401254        10.9187 
  77   0.0000       0.420548        11.4437 
  78   0.0000       0.425813        11.5870 
  79   0.0000       0.431606        11.7446 
  80   0.0000       0.443655        12.0725 
  81   0.0000       0.444739        12.1020 
  82   0.0000       0.460509        12.5311 
  83   0.0000       0.472718        12.8633 
  84   0.0000       0.484491        13.1837 
  85   0.0000       0.492678        13.4064 
  86   0.0000       0.494045        13.4436 
  87   0.0000       0.497945        13.5498 
  88   0.0000       0.508440        13.8354 
  89   0.0000       0.514173        13.9914 
  90   0.0000       0.521354        14.1868 
  91   0.0000       0.527475        14.3533 
  92   0.0000       0.540348        14.7036 
  93   0.0000       0.547701        14.9037 
  94   0.0000       0.558087        15.1863 
  95   0.0000       0.563619        15.3369 
  96   0.0000       0.574151        15.6234 
  97   0.0000       0.585464        15.9313 
  98   0.0000       0.594840        16.1864 
  99   0.0000       0.605246        16.4696 
 100   0.0000       0.622911        16.9503 
 101   0.0000       0.632280        17.2052 
 102   0.0000       0.641300        17.4507 
 103   0.0000       0.649536        17.6748 
 104   0.0000       0.659153        17.9365 
 105   0.0000       0.668323        18.1860 
 106   0.0000       0.671300        18.2670 
 107   0.0000       0.699252        19.0276 
 108   0.0000       0.711468        19.3600 
 109   0.0000       0.719593        19.5811 
 110   0.0000       0.738206        20.0876 
 111   0.0000       0.747299        20.3350 
 112   0.0000       0.763109        20.7652 
 113   0.0000       0.774668        21.0798 
 114   0.0000       0.775795        21.1105 
 115   0.0000       0.791565        21.5396 
 116   0.0000       0.811722        22.0881 
 117   0.0000       0.827199        22.5092 
 118   0.0000       0.832900        22.6644 
 119   0.0000       0.849936        23.1279 
 120   0.0000       0.857087        23.3225 
 121   0.0000       0.863083        23.4857 
 122   0.0000       0.889873        24.2147 
 123   0.0000       0.900293        24.4982 
 124   0.0000       0.923290        25.1240 
 125   0.0000       0.930120        25.3099 
 126   0.0000       0.932350        25.3705 
 127   0.0000       0.939758        25.5721 
 128   0.0000       0.970264        26.4022 
 129   0.0000       0.986971        26.8568 
 130   0.0000       1.004371        27.3303 
 131   0.0000       1.012146        27.5419 
 132   0.0000       1.019147        27.7324 
 133   0.0000       1.034406        28.1476 
 134   0.0000       1.049419        28.5561 
 135   0.0000       1.059926        28.8421 
 136   0.0000       1.074635        29.2423 
 137   0.0000       1.082161        29.4471 
 138   0.0000       1.105670        30.0868 
 139   0.0000       1.124706        30.6048 
 140   0.0000       1.131782        30.7974 
 141   0.0000       1.165099        31.7039 
 142   0.0000       1.210543        32.9406 
 143   0.0000       1.230590        33.4860 
 144   0.0000       1.246760        33.9261 
 145   0.0000       1.252667        34.0868 
 146   0.0000       1.289214        35.0813 
 147   0.0000       1.304304        35.4919 
 148   0.0000       1.318579        35.8804 
 149   0.0000       1.330369        36.2012 
 150   0.0000       1.339577        36.4517 
 151   0.0000       1.345344        36.6087 
 152   0.0000       1.378729        37.5171 
 153   0.0000       1.385993        37.7148 
 154   0.0000       1.418065        38.5875 
 155   0.0000       1.424330        38.7580 
 156   0.0000       1.443356        39.2757 
 157   0.0000       1.454134        39.5690 
 158   0.0000       1.504628        40.9430 
 159   0.0000       1.531514        41.6746 
 160   0.0000       1.549600        42.1668 
 161   0.0000       1.563256        42.5383 
 162   0.0000       1.566897        42.6374 
 163   0.0000       1.579738        42.9869 
 164   0.0000       1.591360        43.3031 
 165   0.0000       1.599936        43.5365 
 166   0.0000       1.604359        43.6568 
 167   0.0000       1.605617        43.6911 
 168   0.0000       1.624570        44.2068 
 169   0.0000       1.635236        44.4970 
 170   0.0000       1.641001        44.6539 
 171   0.0000       1.648120        44.8476 
 172   0.0000       1.651065        44.9278 
 173   0.0000       1.670794        45.4646 
 174   0.0000       1.683259        45.8038 
 175   0.0000       1.694317        46.1047 
 176   0.0000       1.699354        46.2418 
 177   0.0000       1.716331        46.7037 
 178   0.0000       1.737505        47.2799 
 179   0.0000       1.751865        47.6707 
 180   0.0000       1.769564        48.1523 
 181   0.0000       1.780278        48.4438 
 182   0.0000       1.782205        48.4963 
 183   0.0000       1.790506        48.7221 
 184   0.0000       1.810366        49.2626 
 185   0.0000       1.822187        49.5842 
 186   0.0000       1.859910        50.6107 
 187   0.0000       1.872039        50.9408 
 188   0.0000       1.897225        51.6261 
 189   0.0000       1.917982        52.1910 
 190   0.0000       1.925475        52.3948 
 191   0.0000       1.934181        52.6317 
 192   0.0000       1.944158        52.9032 
 193   0.0000       1.949608        53.0515 
 194   0.0000       1.957877        53.2765 
 195   0.0000       1.965544        53.4852 
 196   0.0000       1.974357        53.7250 
 197   0.0000       2.001377        54.4602 
 198   0.0000       2.014028        54.8045 
 199   0.0000       2.035801        55.3970 
 200   0.0000       2.068381        56.2835 
 201   0.0000       2.100564        57.1592 
 202   0.0000       2.113847        57.5207 
 203   0.0000       2.131840        58.0103 
 204   0.0000       2.151339        58.5409 
 205   0.0000       2.164833        58.9081 
 206   0.0000       2.172353        59.1127 
 207   0.0000       2.181718        59.3676 
 208   0.0000       2.196513        59.7701 
 209   0.0000       2.220611        60.4259 
 210   0.0000       2.231212        60.7144 
 211   0.0000       2.258052        61.4447 
 212   0.0000       2.273371        61.8616 
 213   0.0000       2.278908        62.0122 
 214   0.0000       2.307204        62.7822 
 215   0.0000       2.326762        63.3144 
 216   0.0000       2.330865        63.4261 
 217   0.0000       2.346070        63.8398 
 218   0.0000       2.357352        64.1468 
 219   0.0000       2.403781        65.4102 
 220   0.0000       2.427650        66.0597 
 221   0.0000       2.444059        66.5062 
 222   0.0000       2.452417        66.7336 
 223   0.0000       2.494304        67.8735 
 224   0.0000       2.504909        68.1620 
 225   0.0000       2.517090        68.4935 
 226   0.0000       2.539583        69.1056 
 227   0.0000       2.610436        71.0336 
 228   0.0000       2.632761        71.6411 
 229   0.0000       2.644823        71.9693 
 230   0.0000       2.661488        72.4228 
 231   0.0000       2.674324        72.7721 
 232   0.0000       2.680842        72.9494 
 233   0.0000       2.699888        73.4677 
 234   0.0000       2.707648        73.6788 
 235   0.0000       2.726217        74.1841 
 236   0.0000       2.732564        74.3568 
 237   0.0000       2.742275        74.6211 
 238   0.0000       2.776579        75.5546 
 239   0.0000       2.779213        75.6262 
 240   0.0000       2.789650        75.9102 
 241   0.0000       2.808020        76.4101 
 242   0.0000       2.831346        77.0448 
 243   0.0000       2.837518        77.2128 
 244   0.0000       2.845068        77.4182 
 245   0.0000       2.849299        77.5334 
 246   0.0000       2.873000        78.1783 
 247   0.0000       2.891596        78.6843 
 248   0.0000       2.909313        79.1664 
 249   0.0000       2.925832        79.6159 
 250   0.0000       2.938001        79.9471 
 251   0.0000       2.954080        80.3846 
 252   0.0000       2.974239        80.9332 
 253   0.0000       2.982280        81.1520 
 254   0.0000       2.999393        81.6176 
 255   0.0000       3.014112        82.0182 
 256   0.0000       3.034505        82.5731 
 257   0.0000       3.040688        82.7413 
 258   0.0000       3.056942        83.1836 
 259   0.0000       3.064004        83.3758 
 260   0.0000       3.085622        83.9640 
 261   0.0000       3.096389        84.2570 
 262   0.0000       3.106732        84.5385 
 263   0.0000       3.127710        85.1093 
 264   0.0000       3.135862        85.3311 
 265   0.0000       3.139552        85.4315 
 266   0.0000       3.171020        86.2878 
 267   0.0000       3.204182        87.1902 
 268   0.0000       3.208743        87.3143 
 269   0.0000       3.220511        87.6346 
 270   0.0000       3.228818        87.8606 
 271   0.0000       3.238422        88.1219 
 272   0.0000       3.250974        88.4635 
 273   0.0000       3.260295        88.7171 
 274   0.0000       3.271561        89.0237 
 275   0.0000       3.292609        89.5964 
 276   0.0000       3.302797        89.8737 
 277   0.0000       3.334672        90.7410 
 278   0.0000       3.352464        91.2252 
 279   0.0000       3.354961        91.2931 
 280   0.0000       3.372338        91.7660 
 281   0.0000       3.389423        92.2309 
 282   0.0000       3.403418        92.6117 
 283   0.0000       3.424637        93.1891 
 284   0.0000       3.441900        93.6589 
 285   0.0000       3.444738        93.7361 
 286   0.0000       3.449153        93.8562 
 287   0.0000       3.467571        94.3574 
 288   0.0000       3.480410        94.7068 
 289   0.0000       3.488176        94.9181 
 290   0.0000       3.491205        95.0005 
 291   0.0000       3.512295        95.5744 
 292   0.0000       3.518025        95.7303 
 293   0.0000       3.555942        96.7621 
 294   0.0000       3.559799        96.8670 
 295   0.0000       3.573231        97.2326 
 296   0.0000       3.583586        97.5143 
 297   0.0000       3.586259        97.5871 
 298   0.0000       3.605947        98.1228 
 299   0.0000       3.631192        98.8097 
 300   0.0000       3.637232        98.9741 
 301   0.0000       3.653281        99.4108 
 302   0.0000       3.673331        99.9564 
 303   0.0000       3.685079       100.2761 
 304   0.0000       3.729843       101.4942 
 305   0.0000       3.749426       102.0271 
 306   0.0000       3.768201       102.5380 
 307   0.0000       3.803571       103.5004 
 308   0.0000       3.834988       104.3553 
 309   0.0000       3.868331       105.2626 
 310   0.0000       3.877356       105.5082 
 311   0.0000       3.917893       106.6113 
 312   0.0000       3.946754       107.3966 
 313   0.0000       3.993663       108.6731 
 314   0.0000       4.003121       108.9305 
 315   0.0000       4.023798       109.4931 
 316   0.0000       4.065277       110.6218 
 317   0.0000       4.125584       112.2629 
 318   0.0000       4.155601       113.0797 
 319   0.0000       4.209461       114.5453 
 320   0.0000       4.255288       115.7923 
 321   0.0000       4.269395       116.1761 
 322   0.0000       4.286008       116.6282 
 323   0.0000       4.294162       116.8501 
 324   0.0000       4.300448       117.0211 
 325   0.0000       4.324721       117.6816 
 326   0.0000       4.343980       118.2057 
 327   0.0000       4.363924       118.7484 
 328   0.0000       4.380946       119.2116 
 329   0.0000       4.403701       119.8308 
 330   0.0000       4.431310       120.5821 
 331   0.0000       4.461983       121.4167 
 332   0.0000       4.515784       122.8807 
 333   0.0000       4.528171       123.2178 
 334   0.0000       4.564257       124.1998 
 335   0.0000       4.604138       125.2850 
 336   0.0000       4.644798       126.3914 
 337   0.0000       4.746887       129.1694 
 338   0.0000       4.754421       129.3744 
 339   0.0000       4.777559       130.0040 
 340   0.0000       4.795960       130.5047 
 341   0.0000       4.961007       134.9959 
 342   0.0000       5.023604       136.6992 
 343   0.0000       5.037813       137.0859 
 344   0.0000       5.073712       138.0627 
 345   0.0000       5.162468       140.4779 
 346   0.0000       5.168133       140.6320 
 347   0.0000       5.215695       141.9263 
 348   0.0000       5.223590       142.1411 
 349   0.0000       5.260053       143.1333 
 350   0.0000       5.288975       143.9203 
 351   0.0000       5.308709       144.4573 
 352   0.0000       5.419690       147.4772 
 353   0.0000       5.451734       148.3492 
 354   0.0000       5.531537       150.5208 
 355   0.0000       5.570427       151.5790 
 356   0.0000       5.607138       152.5780 
 357   0.0000       5.656356       153.9173 
 358   0.0000       5.708885       155.3466 
 359   0.0000       5.803217       157.9136 
 360   0.0000       5.926501       161.2683 
 361   0.0000       6.118369       166.4893 
 362   0.0000       6.260136       170.3470 
 363   0.0000       6.346981       172.7101 
 364   0.0000       6.429158       174.9463 
 365   0.0000       6.462610       175.8566 
 366   0.0000       6.485658       176.4837 
 367   0.0000       6.591213       179.3560 
 368   0.0000       6.772802       184.2973 
 369   0.0000       6.783206       184.5804 
 370   0.0000       6.902606       187.8295 
 371   0.0000       6.922805       188.3791 
 372   0.0000       7.071874       192.4355 
 373   0.0000       7.175993       195.2687 
 374   0.0000       7.194497       195.7722 
 375   0.0000       9.005573       245.0541 
 376   0.0000       9.458378       257.3756 
 377   0.0000       9.625810       261.9316 
 378   0.0000      20.183689       549.2261 
 379   0.0000      22.059175       600.2607 
 380   0.0000      22.305729       606.9697 
 381   0.0000      22.775740       619.7594 
 382   0.0000      22.789374       620.1304 
 383   0.0000      22.839724       621.5005 
 384   0.0000      22.919491       623.6711 
 385   0.0000      23.270746       633.2292 
 386   0.0000      23.412172       637.0776 
 387   0.0000      43.694007      1188.9744 
 388   0.0000      43.911722      1194.8987 

                 SPIN DOWN ORBITALS
  NO   OCC          E(Eh)            E(eV) 
   0   1.0000     -88.959126     -2420.7009 
   1   1.0000     -19.309768      -525.4455 
   2   1.0000     -19.248865      -523.7882 
   3   1.0000     -10.430661      -283.8327 
   4   1.0000     -10.330925      -281.1188 
   5   1.0000     -10.307226      -280.4739 
   6   1.0000     -10.301532      -280.3189 
   7   1.0000     -10.299397      -280.2608 
   8   1.0000     -10.296453      -280.1807 
   9   1.0000     -10.291790      -280.0538 
  10   1.0000     -10.290663      -280.0232 
  11   1.0000      -8.056213      -219.2207 
  12   1.0000      -6.010119      -163.5437 
  13   1.0000      -6.006002      -163.4316 
  14   1.0000      -6.001529      -163.3099 
  15   1.0000      -1.220756       -33.2184 
  16   1.0000      -1.092026       -29.7155 
  17   1.0000      -1.005869       -27.3711 
  18   1.0000      -0.937495       -25.5105 
  19   1.0000      -0.882691       -24.0193 
  20   1.0000      -0.873208       -23.7612 
  21   1.0000      -0.787554       -21.4304 
  22   1.0000      -0.737664       -20.0729 
  23   1.0000      -0.716185       -19.4884 
  24   1.0000      -0.676656       -18.4127 
  25   1.0000      -0.619534       -16.8584 
  26   1.0000      -0.595005       -16.1909 
  27   1.0000      -0.577317       -15.7096 
  28   1.0000      -0.568813       -15.4782 
  29   1.0000      -0.555200       -15.1078 
  30   1.0000      -0.547413       -14.8959 
  31   1.0000      -0.532915       -14.5014 
  32   1.0000      -0.531871       -14.4729 
  33   1.0000      -0.504261       -13.7216 
  34   1.0000      -0.494698       -13.4614 
  35   1.0000      -0.469700       -12.7812 
  36   1.0000      -0.450313       -12.2536 
  37   1.0000      -0.425648       -11.5825 
  38   1.0000      -0.418907       -11.3990 
  39   1.0000      -0.400228       -10.8908 
  40   1.0000      -0.391911       -10.6644 
  41   1.0000      -0.359128        -9.7724 
  42   1.0000      -0.304298        -8.2804 
  43   0.0000      -0.100763        -2.7419 
  44   0.0000       0.023952         0.6518 
  45   0.0000       0.051626         1.4048 
  46   0.0000       0.102891         2.7998 
  47   0.0000       0.109093         2.9686 
  48   0.0000       0.136675         3.7191 
  49   0.0000       0.157552         4.2872 
  50   0.0000       0.168631         4.5887 
  51   0.0000       0.173369         4.7176 
  52   0.0000       0.186781         5.0826 
  53   0.0000       0.191885         5.2215 
  54   0.0000       0.195836         5.3290 
  55   0.0000       0.211340         5.7509 
  56   0.0000       0.217376         5.9151 
  57   0.0000       0.226356         6.1595 
  58   0.0000       0.227578         6.1927 
  59   0.0000       0.253529         6.8989 
  60   0.0000       0.258709         7.0398 
  61   0.0000       0.279910         7.6167 
  62   0.0000       0.296992         8.0816 
  63   0.0000       0.298682         8.1275 
  64   0.0000       0.301873         8.2144 
  65   0.0000       0.310312         8.4440 
  66   0.0000       0.315701         8.5907 
  67   0.0000       0.320664         8.7257 
  68   0.0000       0.328953         8.9513 
  69   0.0000       0.335088         9.1182 
  70   0.0000       0.338795         9.2191 
  71   0.0000       0.361645         9.8409 
  72   0.0000       0.366688         9.9781 
  73   0.0000       0.376858        10.2548 
  74   0.0000       0.388086        10.5603 
  75   0.0000       0.399272        10.8647 
  76   0.0000       0.402804        10.9609 
  77   0.0000       0.421652        11.4737 
  78   0.0000       0.426599        11.6083 
  79   0.0000       0.432232        11.7616 
  80   0.0000       0.444990        12.1088 
  81   0.0000       0.447320        12.1722 
  82   0.0000       0.460746        12.5375 
  83   0.0000       0.473346        12.8804 
  84   0.0000       0.485139        13.2013 
  85   0.0000       0.494511        13.4563 
  86   0.0000       0.495138        13.4734 
  87   0.0000       0.498352        13.5609 
  88   0.0000       0.509151        13.8547 
  89   0.0000       0.515223        14.0199 
  90   0.0000       0.521705        14.1963 
  91   0.0000       0.529609        14.4114 
  92   0.0000       0.542010        14.7489 
  93   0.0000       0.549672        14.9573 
  94   0.0000       0.558366        15.1939 
  95   0.0000       0.564652        15.3650 
  96   0.0000       0.575069        15.6484 
  97   0.0000       0.588439        16.0122 
  98   0.0000       0.596345        16.2274 
  99   0.0000       0.606625        16.5071 
 100   0.0000       0.627494        17.0750 
 101   0.0000       0.634242        17.2586 
 102   0.0000       0.650455        17.6998 
 103   0.0000       0.651508        17.7284 
 104   0.0000       0.661595        18.0029 
 105   0.0000       0.670322        18.2404 
 106   0.0000       0.672074        18.2881 
 107   0.0000       0.700881        19.0719 
 108   0.0000       0.711902        19.3718 
 109   0.0000       0.721352        19.6290 
 110   0.0000       0.740984        20.1632 
 111   0.0000       0.748245        20.3608 
 112   0.0000       0.765379        20.8270 
 113   0.0000       0.775344        21.0982 
 114   0.0000       0.777136        21.1470 
 115   0.0000       0.793268        21.5859 
 116   0.0000       0.812100        22.0984 
 117   0.0000       0.827762        22.5245 
 118   0.0000       0.835692        22.7403 
 119   0.0000       0.850927        23.1549 
 120   0.0000       0.857540        23.3348 
 121   0.0000       0.864709        23.5299 
 122   0.0000       0.890059        24.2197 
 123   0.0000       0.901416        24.5288 
[...]
      pz      :     0.950340  p :     2.959374
      px      :     1.000792
      py      :     1.008242
      dz2     :     0.038597  d :     0.377521
      dxz     :     0.078831
      dyz     :     0.055017
      dx2y2   :     0.094337
      dxy     :     0.110738
      f0      :     0.004741  f :     0.043368
      f+1     :     0.002433
      f-1     :     0.005878
      f+2     :     0.005854
      f-2     :     0.007193
      f+3     :     0.010932
      f-3     :     0.006337
  4 C s       :     2.753462  s :     2.753462
      pz      :     0.915777  p :     2.881883
      px      :     0.986308
      py      :     0.979798
      dz2     :     0.083950  d :     0.391950
      dxz     :     0.051910
      dyz     :     0.063862
      dx2y2   :     0.082208
      dxy     :     0.110019
      f0      :     0.003338  f :     0.044419
      f+1     :     0.006211
      f-1     :     0.005810
      f+2     :     0.007101
      f-2     :     0.007315
      f+3     :     0.008091
      f-3     :     0.006553
  5 C s       :     2.698489  s :     2.698489
      pz      :     0.936124  p :     2.912387
      px      :     1.030216
      py      :     0.946046
      dz2     :     0.057898  d :     0.489253
      dxz     :     0.097110
      dyz     :     0.079396
      dx2y2   :     0.140974
      dxy     :     0.113875
      f0      :     0.006051  f :     0.056377
      f+1     :     0.005730
      f-1     :     0.005287
      f+2     :     0.008165
      f-2     :     0.009504
      f+3     :     0.014469
      f-3     :     0.007171
  6 C s       :     2.753206  s :     2.753206
      pz      :     0.908273  p :     2.887933
      px      :     0.991942
      py      :     0.987718
      dz2     :     0.040885  d :     0.390960
      dxz     :     0.084050
      dyz     :     0.059283
      dx2y2   :     0.099244
      dxy     :     0.107498
      f0      :     0.005121  f :     0.044537
      f+1     :     0.002352
      f-1     :     0.006255
      f+2     :     0.005933
      f-2     :     0.007316
      f+3     :     0.011331
      f-3     :     0.006229
  7 C s       :     2.759261  s :     2.759261
      pz      :     0.962292  p :     2.957454
      px      :     0.987304
      py      :     1.007859
      dz2     :     0.069976  d :     0.381156
      dxz     :     0.053715
      dyz     :     0.066360
      dx2y2   :     0.081788
      dxy     :     0.109318
      f0      :     0.003461  f :     0.043446
      f+1     :     0.005315
      f-1     :     0.005839
      f+2     :     0.007277
      f-2     :     0.007496
      f+3     :     0.008051
      f-3     :     0.006008
  8 C s       :     2.752615  s :     2.752615
      pz      :     0.797855  p :     2.612925
      px      :     0.888252
      py      :     0.926818
      dz2     :     0.142915  d :     0.991279
      dxz     :     0.209290
      dyz     :     0.131330
      dx2y2   :     0.269696
      dxy     :     0.238050
      f0      :     0.017464  f :     0.157580
      f+1     :     0.022145
      f-1     :     0.011699
      f+2     :     0.015223
      f-2     :     0.028578
      f+3     :     0.037941
      f-3     :     0.024529
  9 O s       :     3.443422  s :     3.443422
      pz      :     1.456096  p :     4.305288
      px      :     1.371275
      py      :     1.477917
      dz2     :     0.007948  d :     0.063775
      dxz     :     0.011391
      dyz     :     0.004261
      dx2y2   :     0.017900
      dxy     :     0.022276
      f0      :     0.000522  f :     0.005500
      f+1     :     0.000711
      f-1     :     0.000307
      f+2     :     0.000187
      f-2     :     0.000753
      f+3     :     0.001533
      f-3     :     0.001486
 10 O s       :     3.443242  s :     3.443242
      pz      :     1.520353  p :     4.305195
      px      :     1.328417
      py      :     1.456424
      dz2     :     0.008780  d :     0.063795
      dxz     :     0.017436
      dyz     :     0.009826
      dx2y2   :     0.013760
      dxy     :     0.013993
      f0      :     0.000482  f :     0.005504
      f+1     :     0.000826
      f-1     :     0.000327
      f+2     :     0.001118
      f-2     :     0.001172
      f+3     :     0.000869
      f-3     :     0.000712
 11 H s       :     0.806925  s :     0.806925
      pz      :     0.020892  p :     0.065368
      px      :     0.013077
      py      :     0.031399
 12 H s       :     0.814703  s :     0.814703
      pz      :     0.024055  p :     0.065737
      px      :     0.013642
      py      :     0.028040
 13 H s       :     0.815115  s :     0.815115
      pz      :     0.022937  p :     0.065778
      px      :     0.028492
      py      :     0.014349
 14 H s       :     0.775607  s :     0.775607
      pz      :     0.020589  p :     0.062101
      px      :     0.026688
      py      :     0.014824
 15 H s       :     0.772648  s :     0.772648
      pz      :     0.011425  p :     0.060106
      px      :     0.031545
      py      :     0.017136
 16 H s       :     0.772659  s :     0.772659
      pz      :     0.019442  p :     0.060167
      px      :     0.026329
      py      :     0.014396
 17 H s       :     0.779806  s :     0.779806
      pz      :     0.012104  p :     0.060260
      px      :     0.031297
      py      :     0.016860

SPIN
  0 C s       :     0.000009  s :     0.000009
      pz      :     0.000022  p :     0.000064
      px      :     0.000031
      py      :     0.000010
      dz2     :    -0.000014  d :    -0.000111
      dxz     :    -0.000046
      dyz     :    -0.000008
      dx2y2   :    -0.000020
      dxy     :    -0.000022
      f0      :    -0.000000  f :    -0.000006
      f+1     :    -0.000004
      f-1     :    -0.000000
      f+2     :    -0.000001
      f-2     :    -0.000000
      f+3     :     0.000000
      f-3     :    -0.000001
  1 S s       :    -0.000022  s :    -0.000022
      pz      :    -0.000710  p :    -0.001128
      px      :    -0.000119
      py      :    -0.000299
      dz2     :    -0.000093  d :    -0.000249
      dxz     :    -0.000027
      dyz     :    -0.000058
      dx2y2   :    -0.000082
      dxy     :     0.000010
      f0      :    -0.000000  f :    -0.000036
      f+1     :    -0.000001
      f-1     :    -0.000024
      f+2     :     0.000000
      f-2     :    -0.000005
      f+3     :     0.000001
      f-3     :    -0.000007
  2 C s       :    -0.000124  s :    -0.000124
      pz      :    -0.001873  p :    -0.003151
      px      :    -0.000301
      py      :    -0.000976
      dz2     :     0.000120  d :     0.000444
      dxz     :     0.000114
      dyz     :     0.000033
      dx2y2   :     0.000071
      dxy     :     0.000106
      f0      :     0.000008  f :     0.000068
      f+1     :     0.000015
      f-1     :     0.000001
      f+2     :     0.000008
      f-2     :     0.000013
      f+3     :     0.000018
      f-3     :     0.000004
  3 C s       :     0.000173  s :     0.000173
      pz      :     0.001145  p :     0.002227
      px      :     0.000259
      py      :     0.000823
      dz2     :    -0.000159  d :    -0.000757
      dxz     :    -0.000205
      dyz     :    -0.000097
      dx2y2   :    -0.000225
      dxy     :    -0.000072
      f0      :    -0.000018  f :    -0.000097
      f+1     :    -0.000002
      f-1     :    -0.000026
      f+2     :    -0.000007
      f-2     :    -0.000011
      f+3     :    -0.000024
      f-3     :    -0.000010
  4 C s       :     0.000750  s :     0.000750
      pz      :    -0.001360  p :    -0.000920
      px      :    -0.000290
      py      :     0.000729
      dz2     :     0.000225  d :     0.000735
      dxz     :     0.000010
      dyz     :     0.000283
      dx2y2   :     0.000299
      dxy     :    -0.000081
      f0      :     0.000004  f :     0.000025
      f+1     :     0.000016
      f-1     :     0.000012
      f+2     :     0.000007
      f-2     :    -0.000009
      f+3     :    -0.000014
      f-3     :     0.000009
  5 C s       :    -0.000844  s :    -0.000844
      pz      :     0.001123  p :     0.002534
      px      :     0.001911
      py      :    -0.000499
      dz2     :    -0.000848  d :    -0.001832
      dxz     :    -0.000106
      dyz     :    -0.000602
      dx2y2   :    -0.000397
      dxy     :     0.000121
      f0      :    -0.000014  f :     0.000155
      f+1     :    -0.000030
      f-1     :    -0.000070
      f+2     :     0.000026
      f-2     :     0.000102
      f+3     :     0.000185
      f-3     :    -0.000045
  6 C s       :     0.000767  s :     0.000767
      pz      :    -0.001005  p :    -0.000523
      px      :    -0.000410
      py      :     0.000891
      dz2     :     0.000050  d :     0.000759
      dxz     :     0.000086
      dyz     :     0.000335
      dx2y2   :     0.000394
      dxy     :    -0.000106
      f0      :     0.000009  f :     0.000024
      f+1     :     0.000001
      f-1     :     0.000007
      f+2     :    -0.000001
      f-2     :     0.000006
      f+3     :    -0.000002
      f-3     :     0.000004
  7 C s       :     0.000177  s :     0.000177
      pz      :     0.001153  p :     0.002231
      px      :     0.000251
      py      :     0.000828
      dz2     :    -0.000408  d :    -0.000685
      dxz     :    -0.000047
      dyz     :     0.000017
      dx2y2   :    -0.000058
      dxy     :    -0.000190
      f0      :    -0.000003  f :    -0.000093
      f+1     :    -0.000031
      f-1     :    -0.000020
      f+2     :    -0.000006
      f-2     :    -0.000005
      f+3     :    -0.000005
      f-3     :    -0.000023
  8 C s       :    -0.005742  s :    -0.005742
      pz      :    -0.014963  p :    -0.029198
      px      :     0.000501
      py      :    -0.014736
      dz2     :     0.002027  d :     0.015455
      dxz     :     0.002640
      dyz     :     0.000842
      dx2y2   :    -0.009783
      dxy     :     0.019729
      f0      :     0.001642  f :     0.041285
      f+1     :     0.000997
      f-1     :     0.002674
      f+2     :     0.004919
      f-2     :     0.009927
      f+3     :     0.020929
      f-3     :     0.000197
  9 O s       :     0.006249  s :     0.006249
      pz      :     0.156181  p :     0.481448
      px      :     0.213861
      py      :     0.111407
      dz2     :    -0.000160  d :     0.000592
      dxz     :     0.000354
      dyz     :    -0.000072
      dx2y2   :     0.000427
      dxy     :     0.000043
      f0      :     0.000008  f :    -0.000017
      f+1     :    -0.000010
      f-1     :    -0.000009
      f+2     :    -0.000001
      f-2     :     0.000014
      f+3     :     0.000061
      f-3     :    -0.000079
 10 O s       :     0.006233  s :     0.006233
      pz      :     0.013077  p :     0.480936
      px      :     0.309023
      py      :     0.158837
      dz2     :    -0.000110  d :     0.000594
      dxz     :    -0.000318
      dyz     :     0.000097
      dx2y2   :     0.000721
      dxy     :     0.000203
      f0      :     0.000002  f :    -0.000016
      f+1     :    -0.000036
      f-1     :     0.000005
      f+2     :     0.000053
      f-2     :    -0.000047
      f+3     :     0.000052
      f-3     :    -0.000044
 11 H s       :     0.000004  s :     0.000004
      pz      :     0.000001  p :     0.000002
      px      :     0.000001
      py      :     0.000000
 12 H s       :    -0.000034  s :    -0.000034
      pz      :     0.000001  p :     0.000002
      px      :     0.000001
      py      :     0.000001
 13 H s       :    -0.000035  s :    -0.000035
      pz      :     0.000000  p :     0.000002
      px      :     0.000001
      py      :     0.000000
 14 H s       :    -0.000091  s :    -0.000091
      pz      :     0.000027  p :     0.000055
      px      :     0.000011
      py      :     0.000017
 15 H s       :     0.000765  s :     0.000765
      pz      :    -0.000052  p :     0.000104
      px      :     0.000108
      py      :     0.000048
 16 H s       :     0.000768  s :     0.000768
      pz      :     0.000044  p :     0.000115
      px      :     0.000055
      py      :     0.000016
 17 H s       :    -0.000095  s :    -0.000095
      pz      :     0.000025  p :     0.000055
      px      :     0.000012
      py      :     0.000018


                      *****************************
                      * MAYER POPULATION ANALYSIS *
                      *****************************

  NA   - Mulliken gross atomic population
  ZA   - Total nuclear charge
  QA   - Mulliken gross atomic charge
  VA   - Mayer's total valence
  BVA  - Mayer's bonded valence
  FA   - Mayer's free valence

  ATOM       NA         ZA         QA         VA         BVA        FA
  0 C      6.4223     6.0000    -0.4223     3.9302     3.9302     0.0000
  1 S     16.0374    16.0000    -0.0374     2.4128     2.4128     0.0000
  2 C      5.8638     6.0000     0.1362     3.8613     3.8613     0.0000
  3 C      6.2323     6.0000    -0.2323     3.8807     3.8807     0.0000
  4 C      6.2332     6.0000    -0.2332     4.0109     4.0108     0.0001
  5 C      5.9734     6.0000     0.0266     3.5276     3.5275     0.0001
  6 C      6.2253     6.0000    -0.2253     3.9897     3.9896     0.0001
  7 C      6.1806     6.0000    -0.1806     3.8576     3.8576     0.0000
  8 C      5.5499     6.0000     0.4501     4.2723     4.2663     0.0060
  9 O      8.2706     8.0000    -0.2706     2.2849     2.0158     0.2691
 10 O      8.2707     8.0000    -0.2707     2.2854     2.0168     0.2686
 11 H      0.8103     1.0000     0.1897     0.9573     0.9573     0.0000
 12 H      0.8262     1.0000     0.1738     0.9562     0.9562     0.0000
 13 H      0.8267     1.0000     0.1733     0.9555     0.9555     0.0000
 14 H      0.8097     1.0000     0.1903     0.9565     0.9565     0.0000
 15 H      0.8221     1.0000     0.1779     0.9703     0.9703     0.0000
 16 H      0.8205     1.0000     0.1795     0.9680     0.9680     0.0000
 17 H      0.8252     1.0000     0.1748     0.9663     0.9663    -0.0000

  Mayer bond orders larger than 0.100000
B(  0-C ,  1-S ) :   1.0590 B(  0-C , 11-H ) :   0.9427 B(  0-C , 12-H ) :   0.9539 
B(  0-C , 13-H ) :   0.9535 B(  1-S ,  2-C ) :   1.2118 B(  2-C ,  3-C ) :   1.2839 
B(  2-C ,  7-C ) :   1.2708 B(  3-C ,  4-C ) :   1.4785 B(  3-C , 14-H ) :   0.9613 
B(  4-C ,  5-C ) :   1.3282 B(  4-C , 15-H ) :   0.9608 B(  5-C ,  6-C ) :   1.2964 
B(  5-C ,  8-C ) :   1.0234 B(  6-C ,  7-C ) :   1.5062 B(  6-C , 16-H ) :   0.9701 
B(  7-C , 17-H ) :   0.9766 B(  8-C ,  9-O ) :   1.6163 B(  8-C , 10-O ) :   1.6171 
B(  9-O , 10-O ) :   0.3919 

-------
TIMINGS
-------

Total SCF time: 0 days 0 hours 0 min 55 sec 

Total time                  ....      55.249 sec
Sum of individual times     ....      54.366 sec  ( 98.4%)

Fock matrix formation       ....      52.067 sec  ( 94.2%)
  Split-RI-J                ....       2.002 sec  (  3.8% of F)
  Chain of spheres X        ....      41.841 sec  ( 80.4% of F)
  XC integration            ....       4.357 sec  (  8.4% of F)
    Basis function eval.    ....       0.766 sec  ( 17.6% of XC)
    Density eval.           ....       1.680 sec  ( 38.6% of XC)
    XC-Functional eval.     ....       0.238 sec  (  5.5% of XC)
    XC-Potential eval.      ....       1.224 sec  ( 28.1% of XC)
Diagonalization             ....       0.571 sec  (  1.0%)
Density matrix formation    ....       0.030 sec  (  0.1%)
Population analysis         ....       0.374 sec  (  0.7%)
Initial guess               ....       0.083 sec  (  0.1%)
Orbital Transformation      ....       0.000 sec  (  0.0%)
Orbital Orthonormalization  ....       0.065 sec  (  0.1%)
DIIS solution               ....       0.286 sec  (  0.5%)
Grid generation             ....       0.955 sec  (  1.7%)

Maximum memory used throughout the entire SCF-calculation: 95.0 MB


-------------------------------------------------------------------------------
                          DFT DISPERSION CORRECTION                            
                                                                               
                              DFTD3 V3.1  Rev 1                                
                              USING zero damping                               
-------------------------------------------------------------------------------
The omegaB97X-D3 functional is recognized. Fit by Chai et al.
Active option DFTDOPT                   ...         3   

molecular C6(AA) [au] = 4868.856672 


            DFT-D V3
 parameters
 s6 scaling factor         :     1.0000 
 rs6 scaling factor        :     1.2810 
 s8 scaling factor         :     1.0000 
 rs8 scaling factor        :     1.0940 
 Damping factor alpha6     :    14.0000 
 Damping factor alpha8     :    16.0000 
 ad hoc parameters k1-k3   :    16.0000     1.3333    -4.0000 

 Edisp/kcal,au: -3.501603690136  -0.005580160079 
 E6   /kcal   :  -1.432885406 
 E8   /kcal   :  -2.068718284 
 % E8         :  59.079166779 

-------------------------   ----------------
Dispersion correction           -0.005580160
-------------------------   ----------------


-------------------------   --------------------
FINAL SINGLE POINT ENERGY      -857.720670169818
-------------------------   --------------------

                                *** OPTIMIZATION RUN DONE ***

                            ***************************************
                            *     ORCA property calculations      *
                            ***************************************

                                    ---------------------
                                    Active property flags
                                    ---------------------
   (+) Dipole Moment


------------------------------------------------------------------------------
                       ORCA ELECTRIC PROPERTIES CALCULATION
------------------------------------------------------------------------------

Dipole Moment Calculation                       ... on
Quadrupole Moment Calculation                   ... off
Polarizability Calculation                      ... off
GBWName                                         ... /burg/berkelbach/users/eav2136/projects/peroxide_dissociation/05_range_separated_functional/wb97x-d-radical-dmf/wb97x-d-radical-dmf_opt.gbw
Electron density                                ... /burg/berkelbach/users/eav2136/projects/peroxide_dissociation/05_range_separated_functional/wb97x-d-radical-dmf/wb97x-d-radical-dmf_opt.scfp
The origin for moment calculation is the CENTER OF MASS  = ( 1.621523,  6.634103  2.136916)

-------------
DIPOLE MOMENT
-------------
                                X             Y             Z
Electronic contribution:      2.56259      -6.28151      -5.48108
Nuclear contribution   :     -3.05910       8.23797       7.03089
                        -----------------------------------------
Total Dipole Moment    :     -0.49651       1.95646       1.54982
                        -----------------------------------------
Magnitude (a.u.)       :      2.54484
Magnitude (Debye)      :      6.46847



--------------------
Rotational spectrum 
--------------------
 
Rotational constants in cm-1:     0.107861     0.015108     0.013287 
Rotational constants in MHz :  3233.577351   452.925725   398.345908 

 Dipole components along the rotational axes: 
x,y,z [a.u.] :     2.465290     0.631307    -0.000013 
x,y,z [Debye]:     6.266270     1.604655    -0.000034 

 

Timings for individual modules:

Sum of individual times         ...     2210.792 sec (=  36.847 min)
GTO integral calculation        ...       71.142 sec (=   1.186 min)   3.2 %
SCF iterations                  ...     1882.454 sec (=  31.374 min)  85.1 %
SCF Gradient evaluation         ...      255.484 sec (=   4.258 min)  11.6 %
Geometry relaxation             ...        1.712 sec (=   0.029 min)   0.1 %
                             ****ORCA TERMINATED NORMALLY****
TOTAL RUN TIME: 0 days 0 hours 37 minutes 11 seconds 726 msec
