Job execution start: Fri Apr 22 10:30:05 EDT 2022
Shared library path: /cm/shared/apps/cuda11.0/toolkit/11.0.3/compat:/burg/berkelbach/users/eav2136/builds/orca/5.0.3/orca:/cm/shared/apps/ucx/1.8.1/lib64:/cm/local/apps/cuda/libs/current/lib64:/cm/shared/apps/cuda11.0/toolkit/11.0.3/targets/x86_64-linux/lib:/cm/shared/apps/cuda11.0/visual-tools/11.0.3/libnvvp:/burg/opt/openmpi-4.1.1_ucx_cuda_11.0.3_support/lib:/cm/shared/apps/slurm/current/lib64/slurm:/cm/shared/apps/slurm/current/lib64
Slurm Job ID is: 1844335
Slurm Job name is: dmf_radical_opt
g066

                                 *****************
                                 * O   R   C   A *
                                 *****************

                                            #,                                       
                                            ###                                      
                                            ####                                     
                                            #####                                    
                                            ######                                   
                                           ########,                                 
                                     ,,################,,,,,                         
                               ,,#################################,,                 
                          ,,##########################################,,             
                       ,#########################################, ''#####,          
                    ,#############################################,,   '####,        
                  ,##################################################,,,,####,       
                ,###########''''           ''''###############################       
              ,#####''   ,,,,##########,,,,          '''####'''          '####       
            ,##' ,,,,###########################,,,                        '##       
           ' ,,###''''                  '''############,,,                           
         ,,##''                                '''############,,,,        ,,,,,,###''
      ,#''                                            '''#######################'''  
     '                                                          ''''####''''         
             ,#######,   #######,   ,#######,      ##                                
            ,#'     '#,  ##    ##  ,#'     '#,    #''#        ######   ,####,        
            ##       ##  ##   ,#'  ##            #'  '#       #        #'  '#        
            ##       ##  #######   ##           ,######,      #####,   #    #        
            '#,     ,#'  ##    ##  '#,     ,#' ,#      #,         ##   #,  ,#        
             '#######'   ##     ##  '#######'  #'      '#     #####' # '####'        



                  #######################################################
                  #                        -***-                        #
                  #          Department of theory and spectroscopy      #
                  #    Directorship and core code : Frank Neese         #
                  #        Max Planck Institute fuer Kohlenforschung    #
                  #                Kaiser Wilhelm Platz 1               #
                  #                 D-45470 Muelheim/Ruhr               #
                  #                      Germany                        #
                  #                                                     #
                  #                  All rights reserved                #
                  #                        -***-                        #
                  #######################################################


                         Program Version 5.0.3 -  RELEASE  -


 With contributions from (in alphabetic order):
   Daniel Aravena         : Magnetic Suceptibility
   Michael Atanasov       : Ab Initio Ligand Field Theory (pilot matlab implementation)
   Alexander A. Auer      : GIAO ZORA, VPT2 properties, NMR spectrum
   Ute Becker             : Parallelization
   Giovanni Bistoni       : ED, misc. LED, open-shell LED, HFLD
   Martin Brehm           : Molecular dynamics
   Dmytro Bykov           : SCF Hessian
   Vijay G. Chilkuri      : MRCI spin determinant printing, contributions to CSF-ICE
   Dipayan Datta          : RHF DLPNO-CCSD density
   Achintya Kumar Dutta   : EOM-CC, STEOM-CC
   Dmitry Ganyushin       : Spin-Orbit,Spin-Spin,Magnetic field MRCI
   Miquel Garcia          : C-PCM and meta-GGA Hessian, CC/C-PCM, Gaussian charge scheme
   Yang Guo               : DLPNO-NEVPT2, F12-NEVPT2, CIM, IAO-localization
   Andreas Hansen         : Spin unrestricted coupled pair/coupled cluster methods
   Benjamin Helmich-Paris : MC-RPA, TRAH-SCF, COSX integrals
   Lee Huntington         : MR-EOM, pCC
   Robert Izsak           : Overlap fitted RIJCOSX, COSX-SCS-MP3, EOM
   Marcus Kettner         : VPT2
   Christian Kollmar      : KDIIS, OOCD, Brueckner-CCSD(T), CCSD density, CASPT2, CASPT2-K
   Simone Kossmann        : Meta GGA functionals, TD-DFT gradient, OOMP2, MP2 Hessian
   Martin Krupicka        : Initial AUTO-CI
   Lucas Lang             : DCDCAS
   Marvin Lechner         : AUTO-CI (C++ implementation), FIC-MRCC
   Dagmar Lenk            : GEPOL surface, SMD
   Dimitrios Liakos       : Extrapolation schemes; Compound Job, initial MDCI parallelization
   Dimitrios Manganas     : Further ROCIS development; embedding schemes
   Dimitrios Pantazis     : SARC Basis sets
   Anastasios Papadopoulos: AUTO-CI, single reference methods and gradients
   Taras Petrenko         : DFT Hessian,TD-DFT gradient, ASA, ECA, R-Raman, ABS, FL, XAS/XES, NRVS
   Peter Pinski           : DLPNO-MP2, DLPNO-MP2 Gradient
   Christoph Reimann      : Effective Core Potentials
   Marius Retegan         : Local ZFS, SOC
   Christoph Riplinger    : Optimizer, TS searches, QM/MM, DLPNO-CCSD(T), (RO)-DLPNO pert. Triples
   Tobias Risthaus        : Range-separated hybrids, TD-DFT gradient, RPA, STAB
   Michael Roemelt        : Original ROCIS implementation
   Masaaki Saitow         : Open-shell DLPNO-CCSD energy and density
   Barbara Sandhoefer     : DKH picture change effects
   Avijit Sen             : IP-ROCIS
   Kantharuban Sivalingam : CASSCF convergence, NEVPT2, FIC-MRCI
   Bernardo de Souza      : ESD, SOC TD-DFT
   Georgi Stoychev        : AutoAux, RI-MP2 NMR, DLPNO-MP2 response
   Willem Van den Heuvel  : Paramagnetic NMR
   Boris Wezisla          : Elementary symmetry handling
   Frank Wennmohs         : Technical directorship


 We gratefully acknowledge several colleagues who have allowed us to
 interface, adapt or use parts of their codes:
   Stefan Grimme, W. Hujo, H. Kruse, P. Pracht,  : VdW corrections, initial TS optimization,
                  C. Bannwarth, S. Ehlert          DFT functionals, gCP, sTDA/sTD-DF
   Ed Valeev, F. Pavosevic, A. Kumar             : LibInt (2-el integral package), F12 methods
   Garnet Chan, S. Sharma, J. Yang, R. Olivares  : DMRG
   Ulf Ekstrom                                   : XCFun DFT Library
   Mihaly Kallay                                 : mrcc  (arbitrary order and MRCC methods)
   Jiri Pittner, Ondrej Demel                    : Mk-CCSD
   Frank Weinhold                                : gennbo (NPA and NBO analysis)
   Christopher J. Cramer and Donald G. Truhlar   : smd solvation model
   Lars Goerigk                                  : TD-DFT with DH, B97 family of functionals
   V. Asgeirsson, H. Jonsson                     : NEB implementation
   FAccTs GmbH                                   : IRC, NEB, NEB-TS, DLPNO-Multilevel, CI-OPT
                                                   MM, QMMM, 2- and 3-layer-ONIOM, Crystal-QMMM,
                                                   LR-CPCM, SF, NACMEs, symmetry and pop. for TD-DFT,
                                                   nearIR, NL-DFT gradient (VV10), updates on ESD,
                                                   ML-optimized integration grids
   S Lehtola, MJT Oliveira, MAL Marques          : LibXC Library
   Liviu Ungur et al                             : ANISO software


 Your calculation uses the libint2 library for the computation of 2-el integrals
 For citations please refer to: http://libint.valeyev.net

 Your ORCA version has been built with support for libXC version: 5.1.0
 For citations please refer to: https://tddft.org/programs/libxc/

 This ORCA versions uses:
   CBLAS   interface :  Fast vector & matrix operations
   LAPACKE interface :  Fast linear algebra routines
   SCALAPACK package :  Parallel linear algebra routines
   Shared memory     :  Shared parallel matrices
   BLAS/LAPACK       :  OpenBLAS 0.3.15  USE64BITINT DYNAMIC_ARCH NO_AFFINITY SkylakeX SINGLE_THREADED
        Core in use  :  SkylakeX
   Copyright (c) 2011-2014, The OpenBLAS Project


Your calculation utilizes the atom-pairwise dispersion correction
with the Becke-Johnson damping scheme (D3BJ)
Cite in your paper:
S.Grimme, S.Ehrlich, L.Goerigk, J Comput Chem, (2011), 32, 1456–1465 
S.Grimme, J.Antony, S.Ehrlich and H.Krieg, J.Chem.Phys., 132, (2010), 154104 
   

Your calculation utilizes the SMD solvation module
Please cite in your paper:
A.V. Marenich, C.J. Cramer, D.G. Truhlar J. Phys. Chem. B, 113, (2009), 6378 

================================================================================

----- Orbital basis set information -----
Your calculation utilizes the basis: def2-TZVP
   F. Weigend and R. Ahlrichs, Phys. Chem. Chem. Phys. 7, 3297 (2005).

----- AuxJ basis set information -----
Your calculation utilizes the auxiliary basis: def2/J
   F. Weigend, Phys. Chem. Chem. Phys. 8, 1057 (2006).

================================================================================
                                        WARNINGS
                       Please study these warnings very carefully!
================================================================================


WARNING: Geometry Optimization
  ===> : Switching off AutoStart
         For restart on a previous wavefunction, please use MOREAD

INFO   : the flag for use of the SHARK integral package has been found!

================================================================================
                                       INPUT FILE
================================================================================
NAME = /burg/berkelbach/users/eav2136/projects/peroxide_dissociation/04_solvated_radical/dmf/dmf_radical_opt.inp
|  1> ! UKS PBE0 def2-TZVP def2/J RIJCOSX D3BJ TIGHTSCF Opt CPCM PAL8
|  2> %maxcore 5000
|  3> %cpcm
|  4> smd true
|  5> SMDsolvent "DMF"
|  6> end
|  7> * xyz 0 2
|  8>  C -0.07425707479814 6.45007760366319 3.54636897867849
|  9>  S 1.48979584793712 6.08048225687873 2.75598260255209
| 10>  C 1.14936654141856 4.63662227087222 1.83369205968326
| 11>  C -0.09136557109480 4.00305286554088 1.79338352444578
| 12>  C -0.25826928718407 2.84269542505768 1.05936282240646
| 13>  C 0.80050967676942 2.30271389692801 0.33923873907232
| 14>  C 2.02875697338567 2.96040825022008 0.34201900047512
| 15>  C 2.20764771123846 4.10330343094754 1.09121055149825
| 16>  C 0.66254428710301 1.09941809961861 -0.50690159852297
| 17>  O 0.00000000000000 0.00000000000000 0.00000000000000
| 18>  O 1.06713866538631 0.98717129960580 -1.62357736506780
| 19>  H 0.10416325535368 7.34607684664392 4.14087383255362
| 20>  H -0.38882275224257 5.64387294862163 4.21002028523424
| 21>  H -0.85323854703301 6.66443357654391 2.81385647784552
| 22>  H -0.93700004363157 4.40513362395569 2.33421606140266
| 23>  H -1.23507439683237 2.37497021944690 1.02749021968162
| 24>  H 2.84544686618639 2.55882587909200 -0.24576673820719
| 25>  H 3.17295340310622 4.59670965109571 1.10248346369500
| 26> *
| 27> 
| 28>                          ****END OF INPUT****
================================================================================

                       *****************************
                       * Geometry Optimization Run *
                       *****************************

Geometry optimization settings:
Update method            Update   .... BFGS
Choice of coordinates    CoordSys .... Z-matrix Internals
Initial Hessian          InHess   .... Almoef's Model

Convergence Tolerances:
Energy Change            TolE     ....  5.0000e-06 Eh
Max. Gradient            TolMAXG  ....  3.0000e-04 Eh/bohr
RMS Gradient             TolRMSG  ....  1.0000e-04 Eh/bohr
Max. Displacement        TolMAXD  ....  4.0000e-03 bohr
RMS Displacement         TolRMSD  ....  2.0000e-03 bohr
Strict Convergence                ....  False
------------------------------------------------------------------------------
                        ORCA OPTIMIZATION COORDINATE SETUP
------------------------------------------------------------------------------

The optimization will be done in new redundant internal coordinates
Making redundant internal coordinates   ...  (new redundants) done
Evaluating the initial hessian          ...  (Almloef) done
Evaluating the coordinates              ...  done
Calculating the B-matrix                .... done
Calculating the G-matrix                .... done
Diagonalizing the G-matrix              .... done
Small eigenvalue found = 1.379e-02
The first mode is                       ....   31
The number of degrees of freedom        ....   48

    -----------------------------------------------------------------
                    Redundant Internal Coordinates


    -----------------------------------------------------------------
         Definition                    Initial Value    Approx d2E/dq
    -----------------------------------------------------------------
      1. B(S   1,C   0)                  1.7910         0.386175   
      2. B(C   2,S   1)                  1.7468         0.454240   
      3. B(C   3,C   2)                  1.3937         0.616320   
      4. B(C   4,C   3)                  1.3831         0.640745   
      5. B(C   5,C   4)                  1.3897         0.625563   
      6. B(C   6,C   5)                  1.3933         0.617369   
      7. B(C   7,C   2)                  1.3985         0.605696   
      8. B(C   7,C   6)                  1.3782         0.652421   
      9. B(C   8,C   5)                  1.4775         0.453096   
     10. B(O   9,C   8)                  1.3801         0.580356   
     11. B(O  10,C   8)                  1.1930         1.153901   
     12. B(H  11,C   0)                  1.0900         0.360109   
     13. B(H  12,C   0)                  1.0906         0.359342   
     14. B(H  13,C   0)                  1.0906         0.359351   
     15. B(H  14,C   3)                  1.0813         0.371759   
     16. B(H  15,C   4)                  1.0835         0.368828   
     17. B(H  16,C   6)                  1.0834         0.368946   
     18. B(H  17,C   7)                  1.0842         0.367916   
     19. A(S   1,C   0,H  13)          111.5879         0.342618   
     20. A(S   1,C   0,H  12)          111.5859         0.342616   
     21. A(H  12,C   0,H  13)          110.3658         0.290648   
     22. A(H  11,C   0,H  12)          108.8436         0.290744   
     23. A(S   1,C   0,H  11)          105.5091         0.342738   
     24. A(H  11,C   0,H  13)          108.7656         0.290746   
     25. A(C   0,S   1,C   2)          103.4970         0.419917   
     26. A(S   1,C   2,C   7)          116.6202         0.431369   
     27. A(C   3,C   2,C   7)          119.0102         0.431786   
     28. A(S   1,C   2,C   3)          124.3692         0.432719   
     29. A(C   2,C   3,C   4)          120.2744         0.436178   
     30. A(C   4,C   3,H  14)          118.8821         0.356807   
     31. A(C   2,C   3,H  14)          120.8433         0.354461   
     32. A(C   5,C   4,H  15)          120.2581         0.354880   
     33. A(C   3,C   4,H  15)          119.1145         0.356327   
     34. A(C   3,C   4,C   5)          120.6005         0.437350   
     35. A(C   6,C   5,C   8)          117.8994         0.410112   
     36. A(C   4,C   5,C   8)          122.8259         0.411072   
     37. A(C   4,C   5,C   6)          119.1567         0.434432   
     38. A(C   7,C   6,H  16)          120.2952         0.357442   
     39. A(C   5,C   6,H  16)          119.2412         0.354107   
     40. A(C   5,C   6,C   7)          120.4618         0.437734   
     41. A(C   6,C   7,H  17)          119.9087         0.357272   
     42. A(C   2,C   7,H  17)          119.6508         0.352797   
     43. A(C   2,C   7,C   6)          120.4398         0.436231   
     44. A(O   9,C   8,O  10)          115.5727         0.473849   
     45. A(C   5,C   8,O  10)          125.5219         0.455899   
     46. A(C   5,C   8,O   9)          118.8999         0.403044   
     47. D(C   2,S   1,C   0,H  12)     61.4721         0.003898   
     48. D(C   2,S   1,C   0,H  11)    179.5234         0.003898   
     49. D(C   2,S   1,C   0,H  13)    -62.5176         0.003898   
     50. D(C   7,C   2,S   1,C   0)    179.8441         0.004531   
     51. D(C   3,C   2,S   1,C   0)      0.0768         0.004531   
     52. D(C   4,C   3,C   2,S   1)   -178.3900         0.026266   
     53. D(H  14,C   3,C   2,C   7)   -178.3097         0.026266   
     54. D(H  14,C   3,C   2,S   1)      1.4524         0.026266   
     55. D(C   4,C   3,C   2,C   7)      1.8479         0.026266   
     56. D(H  15,C   4,C   3,H  14)      1.1825         0.028529   
     57. D(H  15,C   4,C   3,C   2)   -178.9720         0.028529   
     58. D(C   5,C   4,C   3,H  14)    179.3028         0.028529   
     59. D(C   5,C   4,C   3,C   2)     -0.8517         0.028529   
     60. D(C   6,C   5,C   4,H  15)    176.7603         0.027109   
     61. D(C   6,C   5,C   4,C   3)     -1.3385         0.027109   
     62. D(C   8,C   5,C   4,H  15)      0.7946         0.027109   
     63. D(C   8,C   5,C   4,C   3)   -177.3042         0.027109   
     64. D(H  16,C   6,C   5,C   8)     -1.7852         0.026361   
     65. D(H  16,C   6,C   5,C   4)   -177.9495         0.026361   
     66. D(C   7,C   6,C   5,C   8)    178.6982         0.026361   
     67. D(C   7,C   6,C   5,C   4)      2.5338         0.026361   
     68. D(H  17,C   7,C   6,H  16)     -0.7379         0.029652   
     69. D(H  17,C   7,C   6,C   5)    178.7736         0.029652   
     70. D(C   2,C   7,C   6,H  16)    178.9472         0.029652   
     71. D(C   2,C   7,C   6,C   5)     -1.5413         0.029652   
     72. D(H  17,C   7,C   2,C   3)    179.0287         0.025317   
     73. D(H  17,C   7,C   2,S   1)     -0.7516         0.025317   
     74. D(C   6,C   7,C   2,C   3)     -0.6572         0.025317   
     75. D(C   6,C   7,C   2,S   1)    179.5625         0.025317   
     76. D(O   9,C   8,C   5,C   6)    137.7156         0.013991   
     77. D(O   9,C   8,C   5,C   4)    -46.2708         0.013991   
     78. D(O  10,C   8,C   5,C   6)    -43.1749         0.013991   
     79. D(O  10,C   8,C   5,C   4)    132.8388         0.013991   
    -----------------------------------------------------------------

Number of atoms                         .... 18
Number of degrees of freedom            .... 79

         *************************************************************
         *                GEOMETRY OPTIMIZATION CYCLE   1            *
         *************************************************************
---------------------------------
CARTESIAN COORDINATES (ANGSTROEM)
---------------------------------
  C     -0.074257    6.450078    3.546369
  S      1.489796    6.080482    2.755983
  C      1.149367    4.636622    1.833692
  C     -0.091366    4.003053    1.793384
  C     -0.258269    2.842695    1.059363
  C      0.800510    2.302714    0.339239
  C      2.028757    2.960408    0.342019
  C      2.207648    4.103303    1.091211
  C      0.662544    1.099418   -0.506902
  O      0.000000    0.000000    0.000000
  O      1.067139    0.987171   -1.623577
  H      0.104163    7.346077    4.140874
  H     -0.388823    5.643873    4.210020
  H     -0.853239    6.664434    2.813856
  H     -0.937000    4.405134    2.334216
  H     -1.235074    2.374970    1.027490
  H      2.845447    2.558826   -0.245767
  H      3.172953    4.596710    1.102483

----------------------------
CARTESIAN COORDINATES (A.U.)
----------------------------
  NO LB      ZA    FRAG     MASS         X           Y           Z
   0 C     6.0000    0    12.011   -0.140326   12.188880    6.701666
   1 S    16.0000    0    32.060    2.815306   11.490446    5.208052
   2 C     6.0000    0    12.011    2.171988    8.761946    3.465176
   3 C     6.0000    0    12.011   -0.172656    7.564674    3.389004
   4 C     6.0000    0    12.011   -0.488058    5.371916    2.001906
   5 C     6.0000    0    12.011    1.512744    4.351499    0.641068
   6 C     6.0000    0    12.011    3.833795    5.594361    0.646322
   7 C     6.0000    0    12.011    4.171850    7.754120    2.062089
   8 C     6.0000    0    12.011    1.252027    2.077599   -0.957905
   9 O     8.0000    0    15.999    0.000000    0.000000    0.000000
  10 O     8.0000    0    15.999    2.016600    1.865483   -3.068117
  11 H     1.0000    0     1.008    0.196840   13.882073    7.825117
  12 H     1.0000    0     1.008   -0.734769   10.665374    7.955785
  13 H     1.0000    0     1.008   -1.612387   12.593954    5.317418
  14 H     1.0000    0     1.008   -1.770673    8.324496    4.411029
  15 H     1.0000    0     1.008   -2.333952    4.488043    1.941675
  16 H     1.0000    0     1.008    5.377115    4.835480   -0.464432
  17 H     1.0000    0     1.008    5.996013    8.686522    2.083392

--------------------------------
INTERNAL COORDINATES (ANGSTROEM)
--------------------------------
 C      0   0   0     0.000000000000     0.00000000     0.00000000
 S      1   0   0     1.790969818017     0.00000000     0.00000000
 C      2   1   0     1.746780929995   103.49703222     0.00000000
 C      3   2   1     1.393718459520   124.36918170     0.07682297
 C      4   3   2     1.383138688329   120.27439762   181.60997218
 C      5   4   3     1.389666017657   120.60050203   359.14829865
 C      6   5   4     1.393255545064   119.15672375   358.66151732
 C      7   6   5     1.378223229504   120.46180539     2.53383799
 C      6   5   4     1.477466986255   122.82593719   182.69580816
 O      9   6   5     1.380084896203   118.89987975   313.72924568
 O      9   6   5     1.193004913083   125.52191253   132.83876530
 H      1   2   3     1.089992880213   105.50910599   179.52342869
 H      1   2   3     1.090573504139   111.58592171    61.47211732
 H      1   2   3     1.090566449636   111.58785041   297.48242808
 H      4   3   2     1.081326236832   120.84329981     1.45240478
 H      5   4   3     1.083480942612   119.11451180   181.02803207
 H      7   6   5     1.083394137146   119.24119758   182.05045369
 H      8   7   6     1.084154903776   119.90872766   178.77361985

---------------------------
INTERNAL COORDINATES (A.U.)
---------------------------
 C      0   0   0     0.000000000000     0.00000000     0.00000000
 S      1   0   0     3.384442470171     0.00000000     0.00000000
 C      2   1   0     3.300937573646   103.49703222     0.00000000
 C      3   2   1     2.633746196283   124.36918170     0.07682297
 C      4   3   2     2.613753326172   120.27439762   181.60997218
 C      5   4   3     2.626088190988   120.60050203   359.14829865
 C      6   5   4     2.632871414738   119.15672375   358.66151732
 C      7   6   5     2.604464455171   120.46180539     2.53383799
 C      6   5   4     2.792007975932   122.82593719   182.69580816
 O      9   6   5     2.607982495384   118.89987975   313.72924568
 O      9   6   5     2.254452562149   125.52191253   132.83876530
 H      1   2   3     2.059788031526   105.50910599   179.52342869
 H      1   2   3     2.060885251733   111.58592171    61.47211732
 H      1   2   3     2.060871920655   111.58785041   297.48242808
 H      4   3   2     2.043410449036   120.84329981     1.45240478
 H      5   4   3     2.047482252859   119.11451180   181.02803207
 H      7   6   5     2.047318214302   119.24119758   182.05045369
 H      8   7   6     2.048755854885   119.90872766   178.77361985

---------------------
BASIS SET INFORMATION
---------------------
There are 4 groups of distinct atoms

 Group   1 Type C   : 11s6p2d1f contracted to 5s3p2d1f pattern {62111/411/11/1}
 Group   2 Type S   : 14s9p3d1f contracted to 5s5p2d1f pattern {73211/51111/21/1}
 Group   3 Type O   : 11s6p2d1f contracted to 5s3p2d1f pattern {62111/411/11/1}
 Group   4 Type H   : 5s1p contracted to 3s1p pattern {311/1}

Atom   0C    basis set group =>   1
Atom   1S    basis set group =>   2
Atom   2C    basis set group =>   1
Atom   3C    basis set group =>   1
Atom   4C    basis set group =>   1
Atom   5C    basis set group =>   1
Atom   6C    basis set group =>   1
Atom   7C    basis set group =>   1
Atom   8C    basis set group =>   1
Atom   9O    basis set group =>   3
Atom  10O    basis set group =>   3
Atom  11H    basis set group =>   4
Atom  12H    basis set group =>   4
Atom  13H    basis set group =>   4
Atom  14H    basis set group =>   4
Atom  15H    basis set group =>   4
Atom  16H    basis set group =>   4
Atom  17H    basis set group =>   4
---------------------------------
AUXILIARY/J BASIS SET INFORMATION
---------------------------------
There are 4 groups of distinct atoms

 Group   1 Type C   : 12s5p4d2f1g contracted to 6s4p3d1f1g pattern {711111/2111/211/2/1}
 Group   2 Type S   : 14s5p5d2f1g contracted to 8s4p3d1f1g pattern {71111111/2111/311/2/1}
 Group   3 Type O   : 12s5p4d2f1g contracted to 6s4p3d1f1g pattern {711111/2111/211/2/1}
 Group   4 Type H   : 5s2p1d contracted to 3s1p1d pattern {311/2/1}

Atom   0C    basis set group =>   1
Atom   1S    basis set group =>   2
Atom   2C    basis set group =>   1
Atom   3C    basis set group =>   1
Atom   4C    basis set group =>   1
Atom   5C    basis set group =>   1
Atom   6C    basis set group =>   1
Atom   7C    basis set group =>   1
Atom   8C    basis set group =>   1
Atom   9O    basis set group =>   3
Atom  10O    basis set group =>   3
Atom  11H    basis set group =>   4
Atom  12H    basis set group =>   4
Atom  13H    basis set group =>   4
Atom  14H    basis set group =>   4
Atom  15H    basis set group =>   4
Atom  16H    basis set group =>   4
Atom  17H    basis set group =>   4


           ************************************************************
           *        Program running with 8 parallel MPI-processes     *
           *              working on a common directory               *
           ************************************************************
------------------------------------------------------------------------------
                           ORCA GTO INTEGRAL CALCULATION
                           -- RI-GTO INTEGRALS CHOSEN --
------------------------------------------------------------------------------
------------------------------------------------------------------------------
                   ___                                                        
                  /   \      - P O W E R E D   B Y -                         
                 /     \                                                     
                 |  |  |   _    _      __       _____    __    __             
                 |  |  |  | |  | |    /  \     |  _  \  |  |  /  |          
                  \  \/   | |  | |   /    \    | | | |  |  | /  /          
                 / \  \   | |__| |  /  /\  \   | |_| |  |  |/  /          
                |  |  |   |  __  | /  /__\  \  |    /   |      \           
                |  |  |   | |  | | |   __   |  |    \   |  |\   \          
                \     /   | |  | | |  |  |  |  | |\  \  |  | \   \       
                 \___/    |_|  |_| |__|  |__|  |_| \__\ |__|  \__/        
                                                                              
                      - O R C A' S   B I G   F R I E N D -                    
                                      &                                       
                       - I N T E G R A L  F E E D E R -                       
                                                                              
 v1 FN, 2020, v2 2021                                                         
------------------------------------------------------------------------------


Reading SHARK input file /burg/berkelbach/users/eav2136/projects/peroxide_dissociation/04_solvated_radical/dmf/dmf_radical_opt.SHARKINP.tmp ... ok
----------------------
SHARK INTEGRAL PACKAGE
----------------------

Number of atoms                             ...     18
Number of basis functions                   ...    389
Number of shells                            ...    151
Maximum angular momentum                    ...      3
Integral batch strategy                     ... SHARK/LIBINT Hybrid
RI-J (if used) integral strategy            ... SPLIT-RIJ (Revised 2003 algorithm where possible)
Printlevel                                  ...      1
Contraction scheme used                     ... SEGMENTED contraction
Coulomb Range Separation                    ... NOT USED
Exchange Range Separation                   ... NOT USED
Finite Nucleus Model                        ... NOT USED
Auxiliary Coulomb fitting basis             ... AVAILABLE
   # of basis functions in Aux-J            ...    618
   # of shells in Aux-J                     ...    202
   Maximum angular momentum in Aux-J        ...      4
Auxiliary J/K fitting basis                 ... NOT available
Auxiliary Correlation fitting basis         ... NOT available
Auxiliary 'external' fitting basis          ... NOT available
Integral threshold                          ...     2.500000e-11
Primitive cut-off                           ...     2.500000e-12
Primitive pair pre-selection threshold      ...     2.500000e-12

Calculating pre-screening integrals         ... done (  0.1 sec) Dimension = 151
Organizing shell pair data                  ... done (  0.5 sec)
Shell pair information
Total number of shell pairs                 ...     11476
Shell pairs after pre-screening             ...      9496
Total number of primitive shell pairs       ...     36592
Primitive shell pairs kept                  ...     21620
          la=0 lb=0:   2303 shell pairs
          la=1 lb=0:   2678 shell pairs
          la=1 lb=1:    796 shell pairs
          la=2 lb=0:   1383 shell pairs
          la=2 lb=1:    801 shell pairs
          la=2 lb=2:    220 shell pairs
          la=3 lb=0:    667 shell pairs
          la=3 lb=1:    390 shell pairs
          la=3 lb=2:    204 shell pairs
          la=3 lb=3:     54 shell pairs

Calculating one electron integrals          ... done (  0.8 sec)
Calculating RI/J V-Matrix + Cholesky decomp.... done (  2.1 sec)
Calculating Nuclear repulsion               ... done (  0.0 sec) ENN=    631.489285915085 Eh

SHARK setup successfully completed in   7.9 seconds

Maximum memory used throughout the entire GTOINT-calculation: 24.2 MB


           ************************************************************
           *        Program running with 8 parallel MPI-processes     *
           *              working on a common directory               *
           ************************************************************
-------------------------------------------------------------------------------
                                 ORCA SCF
-------------------------------------------------------------------------------

------------
SCF SETTINGS
------------
Hamiltonian:
 Density Functional     Method          .... DFT(GTOs)
 Exchange Functional    Exchange        .... PBE
   PBE kappa parameter   XKappa         ....  0.804000
   PBE mue parameter    XMuePBE         ....  0.219520
 Correlation Functional Correlation     .... PBE
   PBE beta parameter  CBetaPBE         ....  0.066725
 LDA part of GGA corr.  LDAOpt          .... PW91-LDA
 Gradients option       PostSCFGGA      .... off
 Hybrid DFT is turned on
   Fraction HF Exchange ScalHFX         ....  0.250000
   Scaling of DF-GGA-X  ScalDFX         ....  0.750000
   Scaling of DF-GGA-C  ScalDFC         ....  1.000000
   Scaling of DF-LDA-C  ScalLDAC        ....  1.000000
   Perturbative correction              ....  0.000000
   Density functional embedding theory  .... OFF
   NL short-range parameter             ....  6.900000
 RI-approximation to the Coulomb term is turned on
   Number of AuxJ basis functions       .... 618
   RIJ-COSX (HFX calculated with COS-X)).... on


General Settings:
 Integral files         IntName         .... /burg/berkelbach/users/eav2136/projects/peroxide_dissociation/04_solvated_radical/dmf/dmf_radical_opt
 Hartree-Fock type      HFTyp           .... UHF
 Total Charge           Charge          ....    0
 Multiplicity           Mult            ....    2
 Number of Electrons    NEL             ....   87
 Basis Dimension        Dim             ....  389
 Nuclear Repulsion      ENuc            ....    631.4892859151 Eh

Convergence Acceleration:
 DIIS                   CNVDIIS         .... on
   Start iteration      DIISMaxIt       ....    12
   Startup error        DIISStart       ....  0.200000
   # of expansion vecs  DIISMaxEq       ....     5
   Bias factor          DIISBfac        ....   1.050
   Max. coefficient     DIISMaxC        ....  10.000
 Trust-Rad. Augm. Hess. CNVTRAH         .... auto
   Auto Start mean grad. ratio tolernc. ....  1.125000
   Auto Start start iteration           ....    20
   Auto Start num. interpolation iter.  ....    10
   Max. Number of Micro iterations      ....    16
   Max. Number of Macro iterations      .... Maxiter - #DIIS iter
   Number of Davidson start vectors     ....     2
   Converg. threshold I  (grad. norm)   ....   1.000e-05
   Converg. threshold II (energy diff.) ....   1.000e-08
   Grad. Scal. Fac. for Micro threshold ....   0.100
   Minimum threshold for Micro iter.    ....   0.010
   NR start threshold (gradient norm)   ....   0.001
   Initial trust radius                 ....   0.400
   Minimum AH scaling param. (alpha)    ....   1.000
   Maximum AH scaling param. (alpha)    .... 1000.000
   Orbital update algorithm             .... Taylor
   White noise on init. David. guess    .... on
   Maximum white noise                  ....   0.010
   Quad. conv. algorithm                .... NR
 SOSCF                  CNVSOSCF        .... off
 Level Shifting         CNVShift        .... on
   Level shift para.    LevelShift      ....    0.2500
   Turn off err/grad.   ShiftErr        ....    0.0010
 Zerner damping         CNVZerner       .... off
 Static damping         CNVDamp         .... on
   Fraction old density DampFac         ....    0.7000
   Max. Damping (<1)    DampMax         ....    0.9800
   Min. Damping (>=0)   DampMin         ....    0.0000
   Turn off err/grad.   DampErr         ....    0.1000
 Fernandez-Rico         CNVRico         .... off

SCF Procedure:
 Maximum # iterations   MaxIter         ....   125
 SCF integral mode      SCFMode         .... Direct
   Integral package                     .... SHARK and LIBINT hybrid scheme
 Reset frequency        DirectResetFreq ....    20
 Integral Threshold     Thresh          ....  2.500e-11 Eh
 Primitive CutOff       TCut            ....  2.500e-12 Eh

Convergence Tolerance:
 Convergence Check Mode ConvCheckMode   .... Total+1el-Energy
 Convergence forced     ConvForced      .... 0
 Energy Change          TolE            ....  1.000e-08 Eh
 1-El. energy change                    ....  1.000e-05 Eh
 DIIS Error             TolErr          ....  5.000e-07


Diagonalization of the overlap matrix:
Smallest eigenvalue                        ... 7.498e-06
Time for diagonalization                   ...    0.052 sec
Threshold for overlap eigenvalues          ... 1.000e-08
Number of eigenvalues below threshold      ... 0
Time for construction of square roots      ...    0.258 sec
Total time needed                          ...    0.652 sec

Time for model grid setup =    4.328 sec

------------------------------
INITIAL GUESS: MODEL POTENTIAL
------------------------------
Loading Hartree-Fock densities                     ... done
Calculating cut-offs                               ... done
Initializing the effective Hamiltonian             ... done
Setting up the integral package (SHARK)            ... done
Starting the Coulomb interaction                   ... done (   3.1 sec)
Reading the grid                                   ... done
Mapping shells                                     ... done
Starting the XC term evaluation                    ... done (   1.0 sec)
  promolecular density results
     # of electrons  =     87.002319788
     EX              =    -84.142216924
     EC              =     -2.991987125
     EX+EC           =    -87.134204050
Transforming the Hamiltonian                       ... done (   1.0 sec)
Diagonalizing the Hamiltonian                      ... done (   0.8 sec)
Back transforming the eigenvectors                 ... done (   0.1 sec)
Now organizing SCF variables                       ... done
                      ------------------
                      INITIAL GUESS DONE (  11.0 sec)
                      ------------------
-------------------
DFT GRID GENERATION
-------------------

General Integration Accuracy     IntAcc      ... 4.388
Radial Grid Type                 RadialGrid  ... OptM3 with GC (2021)
Angular Grid (max. ang.)         AngularGrid ... 4 (Lebedev-302)
Angular grid pruning method      GridPruning ... 4 (adaptive)
Weight generation scheme         WeightScheme... Becke
Basis function cutoff            BFCut       ... 1.0000e-11
Integration weight cutoff        WCut        ... 1.0000e-14
Angular grids for H and He will be reduced by one unit
Partially contracted basis set               ... off
Rotationally invariant grid construction     ... off

Total number of grid points                  ...    90151
Total number of batches                      ...     1417
Average number of points per batch           ...       63
Average number of grid points per atom       ...     5008
Time for grid setup =    3.374 sec

--------------------
COSX GRID GENERATION
--------------------

GRIDX 1
-------
General Integration Accuracy     IntAcc      ... 3.816
Radial Grid Type                 RadialGrid  ... OptM3 with GC (2021)
Angular Grid (max. ang.)         AngularGrid ... 1 (Lebedev-50)
Angular grid pruning method      GridPruning ... 4 (adaptive)
Weight generation scheme         WeightScheme... Becke
Basis function cutoff            BFCut       ... 1.0000e-11
Integration weight cutoff        WCut        ... 1.0000e-14
Angular grids for H and He will be reduced by one unit
Partially contracted basis set               ... on
Rotationally invariant grid construction     ... off

Total number of grid points                  ...    11402
Total number of batches                      ...      186
Average number of points per batch           ...       61
Average number of grid points per atom       ...      633
UseSFitting                                  ... on

GRIDX 2
-------
General Integration Accuracy     IntAcc      ... 4.020
Radial Grid Type                 RadialGrid  ... OptM3 with GC (2021)
Angular Grid (max. ang.)         AngularGrid ... 2 (Lebedev-110)
Angular grid pruning method      GridPruning ... 4 (adaptive)
Weight generation scheme         WeightScheme... Becke
Basis function cutoff            BFCut       ... 1.0000e-11
Integration weight cutoff        WCut        ... 1.0000e-14
Angular grids for H and He will be reduced by one unit
Partially contracted basis set               ... on
Rotationally invariant grid construction     ... off

Total number of grid points                  ...    25317
Total number of batches                      ...      406
Average number of points per batch           ...       62
Average number of grid points per atom       ...     1406
UseSFitting                                  ... on

GRIDX 3
-------
General Integration Accuracy     IntAcc      ... 4.338
Radial Grid Type                 RadialGrid  ... OptM3 with GC (2021)
Angular Grid (max. ang.)         AngularGrid ... 3 (Lebedev-194)
Angular grid pruning method      GridPruning ... 4 (adaptive)
Weight generation scheme         WeightScheme... Becke
Basis function cutoff            BFCut       ... 1.0000e-11
Integration weight cutoff        WCut        ... 1.0000e-14
Angular grids for H and He will be reduced by one unit
Partially contracted basis set               ... on
Rotationally invariant grid construction     ... off

Total number of grid points                  ...    56227
Total number of batches                      ...      886
Average number of points per batch           ...       63
Average number of grid points per atom       ...     3124
UseSFitting                                  ... on

Time for X-Grid setup             =    5.369 sec


--------------------
CPCM SOLVATION MODEL
--------------------
CPCM parameters:
  Epsilon                                         ...      37.2190
  Refrac                                          ...       1.4305
  Rsolv                                           ...       1.3000
  Surface type                                    ... GAUSSIAN VDW
  Epsilon function type                           ...         CPCM
Solvent:                                     ... DMF
SMD-CDS solvent descriptors:
  Soln                                       ...    1.4305
  Soln25                                     ...    1.4280
  Sola                                       ...    0.0000
  Solb                                       ...    0.7400
  Solg                                       ...   49.5600
  Solc                                       ...    0.0000
  Solh                                       ...    0.0000
Radii:
 Radius for C  used is    3.4960 Bohr (=   1.8500 Ang.)
 Radius for S  used is    4.7054 Bohr (=   2.4900 Ang.)
 Radius for O  used is    4.3350 Bohr (=   2.2940 Ang.)
 Radius for H  used is    2.2677 Bohr (=   1.2000 Ang.)
Calculating surface                               ...        done! (  0.0s)
GEPOL surface points                              ...          997
GEPOL Volume                                      ...    1476.6496
GEPOL Surface-area                                ...     790.7080
Calculating surface distance matrix               ...        done! (  0.0s)
Performing Cholesky decomposition & store         ...        done! (  0.2s)
Overall time for CPCM initialization              ...                 0.2s
--------------
SCF ITERATIONS
--------------
ITER       Energy         Delta-E        Max-DP      RMS-DP      [F,P]     Damp
               ***  Starting incremental Fock matrix formation  ***
  0   -856.7472119075   0.000000000000 0.38823419  0.00189682  0.1729043 0.7000
  1   -856.9651795456  -0.217967638183 0.22200109  0.00109051  0.0603520 0.7000
                               ***Turning on DIIS***
  2   -857.0284201311  -0.063240585481 0.06674721  0.00094990  0.0276712 0.0000
  3   -857.1352261653  -0.106806034139 0.26895833  0.00130192  0.0547562 0.0000
  4   -857.1734418223  -0.038215657048 0.05895842  0.00035892  0.0161830 0.0000
  5   -857.1778078053  -0.004365982953 0.04211840  0.00022488  0.0191948 0.0000
  6   -857.1796188980  -0.001811092774 0.02176722  0.00011251  0.0048377 0.0000
  7   -857.1802414768  -0.000622578778 0.00960748  0.00005510  0.0039737 0.0000
  8   -857.1805872028  -0.000345725994 0.00753786  0.00004518  0.0023232 0.0000
  9   -857.1808551133  -0.000267910488 0.00690927  0.00004340  0.0016920 0.0000
 10   -857.1810728770  -0.000217763667 0.00461120  0.00003295  0.0016774 0.0000
 11   -857.1812368267  -0.000163949762 0.00569027  0.00004076  0.0014497 0.0000
 12   -857.1813843473  -0.000147520622 0.00235108  0.00002133  0.0014999 0.0000
 13   -857.1814861800  -0.000101832699 0.00782127  0.00005426  0.0011308 0.0000
 14   -857.1815768255  -0.000090645466 0.00205754  0.00001919  0.0023895 0.0000
 15   -857.1816646030  -0.000087777453 0.00273414  0.00002187  0.0012186 0.0000
 16   -857.1817249919  -0.000060388911 0.00312037  0.00002418  0.0011506 0.0000
 17   -857.1817662019  -0.000041210047 0.00080507  0.00000998  0.0016305 0.0000
 18   -857.1818053696  -0.000039167706 0.00376517  0.00004607  0.0006678 0.0000
               *** Restarting incremental Fock matrix formation ***
                                   *** Resetting DIIS ***
 19   -857.1818708743  -0.000065504689 0.00393905  0.00002396  0.0015355 0.0000

 WARNING: the maximum gradient error descreased on average only by a factor   1.0
          during the last 20 iterations

                      *** Initiating the TRAH-SCF procedure ***


TRAH GRIDX
----------

General Integration Accuracy     IntAcc      ... 3.067
Radial Grid Type                 RadialGrid  ... OptM3 with GC (2021)
Angular Grid (max. ang.)         AngularGrid ... 1 (Lebedev-50)
Angular grid pruning method      GridPruning ... 4 (adaptive)
Weight generation scheme         WeightScheme... Becke
Basis function cutoff            BFCut       ... 1.0000e-11
Integration weight cutoff        WCut        ... 1.0000e-14
Angular grids for H and He will be reduced by one unit
Partially contracted basis set               ... on
Rotationally invariant grid construction     ... off

Total number of grid points                  ...     6144
Total number of batches                      ...      108
Average number of points per batch           ...       56
Average number of grid points per atom       ...      341


TRAH GRID
---------

General Integration Accuracy     IntAcc      ... 3.467
Radial Grid Type                 RadialGrid  ... OptM3 with GC (2021)
Angular Grid (max. ang.)         AngularGrid ... 1 (Lebedev-50)
Angular grid pruning method      GridPruning ... 4 (adaptive)
Weight generation scheme         WeightScheme... Becke
Basis function cutoff            BFCut       ... 1.0000e-11
Integration weight cutoff        WCut        ... 1.0000e-14
Angular grids for H and He will be reduced by one unit
Partially contracted basis set               ... off
Rotationally invariant grid construction     ... off

Total number of grid points                  ...    13278
Total number of batches                      ...      215
Average number of points per batch           ...       61
Average number of grid points per atom       ...      738

 --------------------------------------------------------------------------------------------
   Iter.        energy            ||Error||_2        Shift      TRadius  Mac/Mic        Rej.
 --------------------------------------------------------------------------------------------
    0       -857.181877830880     5.179906e-03                     0.400 (TRAH MAcro)   No
    0     dE    -5.552938e-06     7.767983e-03    -5.5529e-06      0.001 (TRAH MIcro)
    0     dE    -1.447089e-05     2.437855e-03    -1.4470e-05      0.007 (TRAH MIcro)
    0     dE    -1.964119e-05     3.752710e-03    -1.9637e-05      0.014 (TRAH MIcro)
    0     dE    -2.428487e-05     1.724977e-03    -2.4273e-05      0.022 (TRAH MIcro)
    0     dE    -2.472022e-05     3.966077e-04    -2.4707e-05      0.023 (TRAH MIcro)
    1       -857.181902974486     4.292290e-04                           (NR   MAcro)
    1     dE    -1.437349e-07     2.835626e-04                           (NR   MIcro)
    1     dE    -2.455810e-07     3.093279e-04                           (NR   MIcro)
    1     dE    -3.614816e-07     2.584182e-04                           (NR   MIcro)
    1     dE    -4.218502e-07     1.677161e-04                           (NR   MIcro)
    1     dE    -4.418038e-07     9.515427e-05                           (NR   MIcro)
    1     dE    -4.523993e-07     8.634984e-05                           (NR   MIcro)
    1     dE    -4.581683e-07     5.425056e-05                           (NR   MIcro)
    1     dE    -4.598863e-07     2.979558e-05                           (NR   MIcro)
    1     dE    -4.604948e-07     1.969299e-05                           (NR   MIcro)
    1     dE    -4.606515e-07     9.719488e-06                           (NR   MIcro)
    1     dE    -4.607117e-07     7.074553e-06                           (NR   MIcro)
    1     dE    -4.607286e-07     2.887852e-06                           (NR   MIcro)
    1     dE    -4.607340e-07     2.664619e-06                           (NR   MIcro)
    1     dE    -4.607360e-07     8.997349e-07                           (NR   MIcro)
    2       -857.181903431548     6.370015e-06                           (NR   MAcro)
    2     dE    -1.200472e-11     1.381801e-06                           (NR   MIcro)
    2     dE    -1.286186e-11     7.632482e-07                           (NR   MIcro)
    3       -857.181903431545     7.650684e-07                           (NR   MAcro)

               *****************************************************
               *                     SUCCESS                       *
               *           SCF CONVERGED AFTER  45 CYCLES          *
               *****************************************************

Old exchange energy                            =    -21.349909781 Eh
New exchange energy                            =    -21.349891733 Eh
Exchange energy change after final integration =      0.000018048 Eh
Total energy after final integration           =   -857.181885384 Eh
Final COS-X integration done in                =    10.645 sec

SMD CDS free energy correction energy :                -3.13233     Kcal/mol
Total Energy after SMD CDS correction =              -857.186877063 Eh

----------------
TOTAL SCF ENERGY
----------------

Total Energy       :         -857.18687706 Eh          -23325.24076 eV

Components:
Nuclear Repulsion  :          631.48928592 Eh           17183.69707 eV
Electronic Energy  :        -1488.67616298 Eh          -40508.93783 eV
One Electron Energy:        -2426.80244543 Eh          -66036.65178 eV
Two Electron Energy:          938.12628245 Eh           25527.71395 eV
Max COSX asymmetry :            0.00000048 Eh               0.00001 eV
CPCM Dielectric    :           -0.01669200 Eh              -0.45421 eV
SMD CDS (Gcds)     :           -0.00499168 Eh              -0.13583 eV

Virial components:
Potential Energy   :        -1711.70139124 Eh          -46577.76282 eV
Kinetic Energy     :          854.51451418 Eh           23252.52207 eV
Virial Ratio       :            2.00312735


DFT components:
N(Alpha)           :       44.000016621710 electrons
N(Beta)            :       43.000015820862 electrons
N(Total)           :       87.000032442572 electrons
E(X)               :      -63.890722599648 Eh       
E(C)               :       -2.993097949760 Eh       
E(XC)              :      -66.883820549409 Eh       
DFET-embed. en.    :        0.000000000000 Eh       
CPCM Solvation Model Properties:
Surface-charge          :           -0.02262964
Charge-correction       :            0.00030353 Eh               0.00826 eV
Free-energy (cav+disp)  :           -0.00499168 Eh              -0.13583 eV

---------------
SCF CONVERGENCE
---------------

  Last Energy change         ...    3.0695e-12  Tolerance :   1.0000e-08
  Last Orbital Gradient      ...    7.6507e-07  Tolerance :   1.0000e-05
  Last Orbital Rotation      ...    4.4742e-06

             **** THE GBW FILE WAS UPDATED (/burg/berkelbach/users/eav2136/projects/peroxide_dissociation/04_solvated_radical/dmf/dmf_radical_opt.gbw) ****
             **** DENSITY /burg/berkelbach/users/eav2136/projects/peroxide_dissociation/04_solvated_radical/dmf/dmf_radical_opt.scfp WAS UPDATED ****
             **** ENERGY FILE WAS UPDATED (/burg/berkelbach/users/eav2136/projects/peroxide_dissociation/04_solvated_radical/dmf/dmf_radical_opt.en.tmp) ****
----------------------
UHF SPIN CONTAMINATION
----------------------

Warning: in a DFT calculation there is little theoretical justification to 
         calculate <S**2> as in Hartree-Fock theory. We will do it anyways
         but you should keep in mind that the values have only limited relevance

Expectation value of <S**2>     :     0.757149
Ideal value S*(S+1) for S=0.5   :     0.750000
Deviation                       :     0.007149

             **** THE GBW FILE WAS UPDATED (/burg/berkelbach/users/eav2136/projects/peroxide_dissociation/04_solvated_radical/dmf/dmf_radical_opt.gbw) ****
             **** DENSITY /burg/berkelbach/users/eav2136/projects/peroxide_dissociation/04_solvated_radical/dmf/dmf_radical_opt.scfp WAS UPDATED ****
----------------
ORBITAL ENERGIES
----------------
                 SPIN UP ORBITALS
  NO   OCC          E(Eh)            E(eV) 
   0   1.0000     -89.041506     -2422.9426 
   1   1.0000     -19.280238      -524.6419 
   2   1.0000     -19.222145      -523.0612 
   3   1.0000     -10.363970      -282.0180 
   4   1.0000     -10.281129      -279.7637 
   5   1.0000     -10.256261      -279.0870 
   6   1.0000     -10.248744      -278.8825 
   7   1.0000     -10.246320      -278.8166 
   8   1.0000     -10.245081      -278.7828 
   9   1.0000     -10.241668      -278.6900 
  10   1.0000     -10.239696      -278.6363 
  11   1.0000      -8.019922      -218.2332 
  12   1.0000      -5.956262      -162.0781 
  13   1.0000      -5.952560      -161.9774 
  14   1.0000      -5.949567      -161.8959 
  15   1.0000      -1.141946       -31.0739 
  16   1.0000      -1.038233       -28.2517 
  17   1.0000      -0.915713       -24.9178 
  18   1.0000      -0.847927       -23.0733 
  19   1.0000      -0.791570       -21.5397 
  20   1.0000      -0.783556       -21.3216 
  21   1.0000      -0.698517       -19.0076 
  22   1.0000      -0.649313       -17.6687 
  23   1.0000      -0.629910       -17.1407 
  24   1.0000      -0.589799       -16.0492 
  25   1.0000      -0.545967       -14.8565 
  26   1.0000      -0.510001       -13.8778 
  27   1.0000      -0.496006       -13.4970 
  28   1.0000      -0.489699       -13.3254 
  29   1.0000      -0.471831       -12.8392 
  30   1.0000      -0.462005       -12.5718 
  31   1.0000      -0.450760       -12.2658 
  32   1.0000      -0.447931       -12.1888 
  33   1.0000      -0.428285       -11.6542 
  34   1.0000      -0.410787       -11.1781 
  35   1.0000      -0.402998       -10.9661 
  36   1.0000      -0.382449       -10.4070 
  37   1.0000      -0.371530       -10.1099 
  38   1.0000      -0.347854        -9.4656 
  39   1.0000      -0.343996        -9.3606 
  40   1.0000      -0.329803        -8.9744 
  41   1.0000      -0.315426        -8.5832 
  42   1.0000      -0.286861        -7.8059 
  43   1.0000      -0.238049        -6.4776 
  44   0.0000      -0.048822        -1.3285 
  45   0.0000      -0.022898        -0.6231 
  46   0.0000       0.025452         0.6926 
  47   0.0000       0.031319         0.8522 
  48   0.0000       0.061654         1.6777 
  49   0.0000       0.083960         2.2847 
  50   0.0000       0.093632         2.5479 
  51   0.0000       0.098024         2.6674 
  52   0.0000       0.114238         3.1086 
  53   0.0000       0.116767         3.1774 
  54   0.0000       0.121276         3.3001 
  55   0.0000       0.131599         3.5810 
  56   0.0000       0.140389         3.8202 
  57   0.0000       0.152519         4.1503 
  58   0.0000       0.154867         4.2141 
  59   0.0000       0.177860         4.8398 
  60   0.0000       0.182271         4.9599 
  61   0.0000       0.205289         5.5862 
  62   0.0000       0.219981         5.9860 
  63   0.0000       0.225179         6.1274 
  64   0.0000       0.225572         6.1381 
  65   0.0000       0.234241         6.3740 
  66   0.0000       0.239595         6.5197 
  67   0.0000       0.244797         6.6613 
  68   0.0000       0.250532         6.8173 
  69   0.0000       0.258659         7.0385 
  70   0.0000       0.262607         7.1459 
  71   0.0000       0.283355         7.7105 
  72   0.0000       0.288078         7.8390 
  73   0.0000       0.298956         8.1350 
  74   0.0000       0.310048         8.4368 
  75   0.0000       0.320724         8.7273 
  76   0.0000       0.323957         8.8153 
  77   0.0000       0.342648         9.3239 
  78   0.0000       0.349635         9.5141 
  79   0.0000       0.351828         9.5737 
  80   0.0000       0.368227        10.0200 
  81   0.0000       0.368826        10.0363 
  82   0.0000       0.382558        10.4099 
  83   0.0000       0.393716        10.7136 
  84   0.0000       0.409949        11.1553 
  85   0.0000       0.411255        11.1908 
  86   0.0000       0.412554        11.2262 
  87   0.0000       0.423085        11.5127 
  88   0.0000       0.432344        11.7647 
  89   0.0000       0.436687        11.8829 
  90   0.0000       0.444791        12.1034 
  91   0.0000       0.451725        12.2920 
  92   0.0000       0.463523        12.6131 
  93   0.0000       0.468100        12.7376 
  94   0.0000       0.477521        12.9940 
  95   0.0000       0.485829        13.2201 
  96   0.0000       0.493188        13.4203 
  97   0.0000       0.505863        13.7652 
  98   0.0000       0.518697        14.1145 
  99   0.0000       0.523932        14.2569 
 100   0.0000       0.541484        14.7345 
 101   0.0000       0.552421        15.0321 
 102   0.0000       0.559249        15.2179 
 103   0.0000       0.568666        15.4742 
 104   0.0000       0.577511        15.7149 
 105   0.0000       0.586490        15.9592 
 106   0.0000       0.590443        16.0668 
 107   0.0000       0.619466        16.8565 
 108   0.0000       0.628335        17.0979 
 109   0.0000       0.639176        17.3929 
 110   0.0000       0.656826        17.8731 
 111   0.0000       0.667683        18.1686 
 112   0.0000       0.680840        18.5266 
 113   0.0000       0.690886        18.8000 
 114   0.0000       0.697167        18.9709 
 115   0.0000       0.704644        19.1743 
 116   0.0000       0.727595        19.7989 
 117   0.0000       0.740739        20.1565 
 118   0.0000       0.754005        20.5175 
 119   0.0000       0.771026        20.9807 
 120   0.0000       0.775478        21.1018 
 121   0.0000       0.784883        21.3578 
 122   0.0000       0.799572        21.7575 
 123   0.0000       0.814846        22.1731 
 124   0.0000       0.835813        22.7436 
 125   0.0000       0.846622        23.0378 
 126   0.0000       0.848507        23.0891 
 127   0.0000       0.856473        23.3058 
 128   0.0000       0.883618        24.0445 
 129   0.0000       0.903659        24.5898 
 130   0.0000       0.919372        25.0174 
 131   0.0000       0.928519        25.2663 
 132   0.0000       0.938029        25.5251 
 133   0.0000       0.951091        25.8805 
 134   0.0000       0.965404        26.2700 
 135   0.0000       0.972187        26.4545 
 136   0.0000       0.990228        26.9455 
 137   0.0000       0.998744        27.1772 
 138   0.0000       1.019586        27.7444 
 139   0.0000       1.039047        28.2739 
 140   0.0000       1.045757        28.4565 
 141   0.0000       1.077903        29.3312 
 142   0.0000       1.124378        30.5959 
 143   0.0000       1.141649        31.0658 
 144   0.0000       1.158686        31.5295 
 145   0.0000       1.166671        31.7467 
 146   0.0000       1.201911        32.7057 
 147   0.0000       1.216661        33.1070 
 148   0.0000       1.231152        33.5013 
 149   0.0000       1.243613        33.8404 
 150   0.0000       1.251093        34.0440 
 151   0.0000       1.257611        34.2213 
 152   0.0000       1.291081        35.1321 
 153   0.0000       1.299364        35.3575 
 154   0.0000       1.328643        36.1542 
 155   0.0000       1.338766        36.4297 
 156   0.0000       1.356358        36.9084 
 157   0.0000       1.368174        37.2299 
 158   0.0000       1.415736        38.5241 
 159   0.0000       1.439964        39.1834 
 160   0.0000       1.464034        39.8384 
 161   0.0000       1.474151        40.1137 
 162   0.0000       1.484046        40.3829 
 163   0.0000       1.489346        40.5272 
 164   0.0000       1.504113        40.9290 
 165   0.0000       1.512492        41.1570 
 166   0.0000       1.515652        41.2430 
 167   0.0000       1.518418        41.3182 
 168   0.0000       1.531750        41.6810 
 169   0.0000       1.549676        42.1688 
 170   0.0000       1.551394        42.2156 
 171   0.0000       1.558221        42.4013 
 172   0.0000       1.562278        42.5117 
 173   0.0000       1.585071        43.1320 
 174   0.0000       1.594230        43.3812 
 175   0.0000       1.609248        43.7899 
 176   0.0000       1.612280        43.8724 
 177   0.0000       1.626034        44.2466 
 178   0.0000       1.646768        44.8108 
 179   0.0000       1.663098        45.2552 
 180   0.0000       1.681054        45.7438 
 181   0.0000       1.689051        45.9614 
 182   0.0000       1.692723        46.0613 
 183   0.0000       1.700898        46.2838 
 184   0.0000       1.720676        46.8220 
 185   0.0000       1.734413        47.1958 
 186   0.0000       1.772062        48.2202 
 187   0.0000       1.783368        48.5279 
 188   0.0000       1.806665        49.1619 
 189   0.0000       1.826388        49.6985 
 190   0.0000       1.830661        49.8148 
 191   0.0000       1.842751        50.1438 
 192   0.0000       1.852517        50.4096 
 193   0.0000       1.860518        50.6273 
 194   0.0000       1.868076        50.8329 
 195   0.0000       1.880014        51.1578 
 196   0.0000       1.886765        51.3415 
 197   0.0000       1.913546        52.0702 
 198   0.0000       1.923698        52.3465 
 199   0.0000       1.954699        53.1901 
 200   0.0000       1.979454        53.8637 
 201   0.0000       2.017692        54.9042 
 202   0.0000       2.030365        55.2490 
 203   0.0000       2.047715        55.7212 
 204   0.0000       2.062917        56.1348 
 205   0.0000       2.077875        56.5418 
 206   0.0000       2.083587        56.6973 
 207   0.0000       2.091542        56.9138 
 208   0.0000       2.106888        57.3313 
 209   0.0000       2.132938        58.0402 
 210   0.0000       2.144573        58.3568 
 211   0.0000       2.168948        59.0201 
 212   0.0000       2.183717        59.4220 
 213   0.0000       2.189140        59.5695 
 214   0.0000       2.219641        60.3995 
 215   0.0000       2.238995        60.9262 
 216   0.0000       2.244654        61.0801 
 217   0.0000       2.260511        61.5116 
 218   0.0000       2.272772        61.8453 
 219   0.0000       2.316638        63.0389 
 220   0.0000       2.341094        63.7044 
 221   0.0000       2.357477        64.1502 
 222   0.0000       2.365977        64.3815 
 223   0.0000       2.407280        65.5054 
 224   0.0000       2.417408        65.7810 
 225   0.0000       2.428971        66.0957 
 226   0.0000       2.453261        66.7566 
 227   0.0000       2.525346        68.7182 
 228   0.0000       2.545799        69.2747 
 229   0.0000       2.555954        69.5510 
 230   0.0000       2.575860        70.0927 
 231   0.0000       2.588211        70.4288 
 232   0.0000       2.594524        70.6006 
 233   0.0000       2.614117        71.1337 
 234   0.0000       2.620757        71.3144 
 235   0.0000       2.642814        71.9146 
 236   0.0000       2.646865        72.0249 
 237   0.0000       2.656432        72.2852 
 238   0.0000       2.690039        73.1997 
 239   0.0000       2.692938        73.2786 
 240   0.0000       2.702912        73.5500 
 241   0.0000       2.719516        74.0018 
 242   0.0000       2.745125        74.6986 
 243   0.0000       2.752492        74.8991 
 244   0.0000       2.757741        75.0419 
 245   0.0000       2.764914        75.2371 
 246   0.0000       2.787491        75.8515 
 247   0.0000       2.804294        76.3087 
 248   0.0000       2.821823        76.7857 
 249   0.0000       2.840118        77.2835 
 250   0.0000       2.851675        77.5980 
 251   0.0000       2.871068        78.1257 
 252   0.0000       2.889328        78.6226 
 253   0.0000       2.903171        78.9993 
 254   0.0000       2.915544        79.3360 
 255   0.0000       2.933727        79.8308 
 256   0.0000       2.952125        80.3314 
 257   0.0000       2.957763        80.4848 
 258   0.0000       2.976455        80.9935 
 259   0.0000       2.980194        81.0952 
 260   0.0000       3.000797        81.6558 
 261   0.0000       3.013020        81.9884 
 262   0.0000       3.024314        82.2958 
 263   0.0000       3.043800        82.8260 
 264   0.0000       3.052412        83.0603 
 265   0.0000       3.058136        83.2161 
 266   0.0000       3.084896        83.9443 
 267   0.0000       3.119460        84.8848 
 268   0.0000       3.125918        85.0606 
 269   0.0000       3.135313        85.3162 
 270   0.0000       3.144517        85.5667 
 271   0.0000       3.156708        85.8984 
 272   0.0000       3.168124        86.2090 
 273   0.0000       3.178803        86.4996 
 274   0.0000       3.191056        86.8330 
 275   0.0000       3.211802        87.3976 
 276   0.0000       3.219947        87.6192 
 277   0.0000       3.251155        88.4684 
 278   0.0000       3.269394        88.9647 
 279   0.0000       3.272677        89.0541 
 280   0.0000       3.289121        89.5015 
 281   0.0000       3.304754        89.9269 
 282   0.0000       3.321087        90.3714 
 283   0.0000       3.341297        90.9213 
 284   0.0000       3.356960        91.3475 
 285   0.0000       3.360666        91.4484 
 286   0.0000       3.365196        91.5716 
 287   0.0000       3.384001        92.0833 
 288   0.0000       3.394724        92.3751 
 289   0.0000       3.401732        92.5658 
 290   0.0000       3.407948        92.7350 
 291   0.0000       3.429632        93.3250 
 292   0.0000       3.433524        93.4309 
 293   0.0000       3.471607        94.4672 
 294   0.0000       3.475613        94.5762 
 295   0.0000       3.489684        94.9591 
 296   0.0000       3.500061        95.2415 
 297   0.0000       3.501100        95.2698 
 298   0.0000       3.522544        95.8533 
 299   0.0000       3.546472        96.5044 
 300   0.0000       3.553099        96.6847 
 301   0.0000       3.568093        97.0928 
 302   0.0000       3.589630        97.6788 
 303   0.0000       3.600681        97.9795 
 304   0.0000       3.647349        99.2494 
 305   0.0000       3.664856        99.7258 
 306   0.0000       3.684098       100.2494 
 307   0.0000       3.717566       101.1601 
 308   0.0000       3.748848       102.0113 
 309   0.0000       3.786805       103.0442 
 310   0.0000       3.793807       103.2347 
 311   0.0000       3.835934       104.3811 
 312   0.0000       3.861499       105.0767 
 313   0.0000       3.908959       106.3682 
 314   0.0000       3.920573       106.6842 
 315   0.0000       3.941791       107.2616 
 316   0.0000       3.983153       108.3871 
 317   0.0000       4.043994       110.0427 
 318   0.0000       4.072691       110.8236 
 319   0.0000       4.126588       112.2902 
 320   0.0000       4.172511       113.5398 
 321   0.0000       4.184407       113.8635 
 322   0.0000       4.202945       114.3680 
 323   0.0000       4.208948       114.5313 
 324   0.0000       4.215152       114.7001 
 325   0.0000       4.240643       115.3938 
 326   0.0000       4.258077       115.8682 
 327   0.0000       4.279800       116.4593 
 328   0.0000       4.297972       116.9538 
 329   0.0000       4.320400       117.5641 
 330   0.0000       4.347002       118.2880 
 331   0.0000       4.378852       119.1546 
 332   0.0000       4.432428       120.6125 
 333   0.0000       4.448221       121.0423 
 334   0.0000       4.491579       122.2221 
 335   0.0000       4.524233       123.1106 
 336   0.0000       4.565220       124.2260 
 337   0.0000       4.663834       126.9094 
 338   0.0000       4.669161       127.0543 
 339   0.0000       4.692540       127.6905 
 340   0.0000       4.711316       128.2014 
 341   0.0000       4.878197       132.7425 
 342   0.0000       4.941495       134.4649 
 343   0.0000       4.954782       134.8265 
 344   0.0000       4.990898       135.8092 
 345   0.0000       5.097085       138.6987 
 346   0.0000       5.097853       138.7196 
 347   0.0000       5.141105       139.8966 
 348   0.0000       5.143872       139.9719 
 349   0.0000       5.176384       140.8566 
 350   0.0000       5.207421       141.7011 
 351   0.0000       5.233803       142.4190 
 352   0.0000       5.341730       145.3559 
 353   0.0000       5.374474       146.2469 
 354   0.0000       5.456272       148.4727 
 355   0.0000       5.488316       149.3447 
 356   0.0000       5.529960       150.4779 
 357   0.0000       5.584103       151.9512 
 358   0.0000       5.633638       153.2991 
 359   0.0000       5.736496       156.0980 
 360   0.0000       5.855469       159.3354 
 361   0.0000       6.052560       164.6985 
 362   0.0000       6.197340       168.6382 
 363   0.0000       6.281678       170.9331 
 364   0.0000       6.373998       173.4453 
 365   0.0000       6.392412       173.9464 
 366   0.0000       6.415617       174.5778 
 367   0.0000       6.521338       177.4546 
 368   0.0000       6.713439       182.6820 
 369   0.0000       6.723623       182.9591 
 370   0.0000       6.831902       185.9055 
 371   0.0000       6.869681       186.9335 
 372   0.0000       7.004092       190.5910 
 373   0.0000       7.107854       193.4145 
 374   0.0000       7.126992       193.9353 
 375   0.0000       8.934855       243.1298 
 376   0.0000       9.388683       255.4790 
 377   0.0000       9.556567       260.0474 
 378   0.0000      20.118938       547.4641 
 379   0.0000      22.033276       599.5559 
 380   0.0000      22.279068       606.2442 
 381   0.0000      22.749853       619.0550 
 382   0.0000      22.763801       619.4345 
 383   0.0000      22.815298       620.8358 
 384   0.0000      22.893217       622.9561 
 385   0.0000      23.251263       632.6990 
 386   0.0000      23.394011       636.5834 
 387   0.0000      43.730045      1189.9550 
 388   0.0000      43.930542      1195.4108 

                 SPIN DOWN ORBITALS
  NO   OCC          E(Eh)            E(eV) 
   0   1.0000     -89.041167     -2422.9333 
   1   1.0000     -19.258130      -524.0403 
   2   1.0000     -19.217920      -522.9462 
   3   1.0000     -10.364849      -282.0419 
   4   1.0000     -10.280604      -279.7495 
   5   1.0000     -10.255695      -279.0716 
   6   1.0000     -10.248434      -278.8741 
   7   1.0000     -10.246176      -278.8126 
   8   1.0000     -10.245104      -278.7835 
   9   1.0000     -10.241552      -278.6868 
  10   1.0000     -10.239815      -278.6395 
  11   1.0000      -8.019607      -218.2246 
  12   1.0000      -5.956069      -162.0729 
  13   1.0000      -5.952386      -161.9727 
  14   1.0000      -5.948458      -161.8658 
  15   1.0000      -1.125036       -30.6138 
  16   1.0000      -0.991652       -26.9842 
  17   1.0000      -0.914255       -24.8781 
  18   1.0000      -0.846032       -23.0217 
  19   1.0000      -0.791017       -21.5247 
  20   1.0000      -0.781770       -21.2730 
  21   1.0000      -0.696841       -18.9620 
  22   1.0000      -0.648335       -17.6421 
  23   1.0000      -0.626620       -17.0512 
  24   1.0000      -0.586762       -15.9666 
  25   1.0000      -0.526418       -14.3246 
  26   1.0000      -0.507838       -13.8190 
  27   1.0000      -0.487368       -13.2620 
  28   1.0000      -0.479540       -13.0489 
  29   1.0000      -0.469786       -12.7835 
  30   1.0000      -0.456332       -12.4174 
  31   1.0000      -0.448584       -12.2066 
  32   1.0000      -0.446711       -12.1556 
  33   1.0000      -0.422075       -11.4852 
  34   1.0000      -0.407013       -11.0754 
  35   1.0000      -0.392286       -10.6746 
  36   1.0000      -0.370988       -10.0951 
  37   1.0000      -0.343690        -9.3523 
  38   1.0000      -0.330356        -8.9895 
  39   1.0000      -0.320564        -8.7230 
  40   1.0000      -0.305107        -8.3024 
  41   1.0000      -0.285806        -7.7772 
  42   1.0000      -0.235335        -6.4038 
  43   0.0000      -0.171773        -4.6742 
  44   0.0000      -0.044402        -1.2082 
  45   0.0000      -0.020893        -0.5685 
  46   0.0000       0.026785         0.7288 
  47   0.0000       0.032412         0.8820 
  48   0.0000       0.062251         1.6939 
  49   0.0000       0.084420         2.2972 
  50   0.0000       0.094623         2.5748 
  51   0.0000       0.098960         2.6928 
  52   0.0000       0.115139         3.1331 
  53   0.0000       0.117103         3.1865 
  54   0.0000       0.122039         3.3209 
  55   0.0000       0.133196         3.6244 
  56   0.0000       0.141141         3.8406 
  57   0.0000       0.154425         4.2021 
  58   0.0000       0.155505         4.2315 
  59   0.0000       0.179063         4.8725 
  60   0.0000       0.185521         5.0483 
  61   0.0000       0.205910         5.6031 
  62   0.0000       0.222023         6.0415 
  63   0.0000       0.225913         6.1474 
  64   0.0000       0.226549         6.1647 
  65   0.0000       0.236629         6.4390 
  66   0.0000       0.241510         6.5718 
  67   0.0000       0.246746         6.7143 
  68   0.0000       0.252105         6.8601 
  69   0.0000       0.259709         7.0671 
  70   0.0000       0.263738         7.1767 
  71   0.0000       0.284785         7.7494 
  72   0.0000       0.289196         7.8694 
  73   0.0000       0.300649         8.1811 
  74   0.0000       0.311447         8.4749 
  75   0.0000       0.321340         8.7441 
  76   0.0000       0.325971         8.8701 
  77   0.0000       0.344193         9.3660 
  78   0.0000       0.351081         9.5534 
  79   0.0000       0.353055         9.6071 
  80   0.0000       0.369635        10.0583 
  81   0.0000       0.372924        10.1478 
  82   0.0000       0.383171        10.4266 
  83   0.0000       0.394943        10.7470 
  84   0.0000       0.411045        11.1851 
  85   0.0000       0.412918        11.2361 
  86   0.0000       0.415906        11.3174 
  87   0.0000       0.423614        11.5271 
  88   0.0000       0.434039        11.8108 
  89   0.0000       0.438594        11.9348 
  90   0.0000       0.445294        12.1171 
  91   0.0000       0.453850        12.3499 
  92   0.0000       0.465656        12.6711 
  93   0.0000       0.470295        12.7974 
  94   0.0000       0.478068        13.0089 
  95   0.0000       0.486858        13.2481 
  96   0.0000       0.494283        13.4501 
  97   0.0000       0.508991        13.8503 
  98   0.0000       0.519956        14.1487 
  99   0.0000       0.526272        14.3206 
 100   0.0000       0.547631        14.9018 
 101   0.0000       0.553848        15.0710 
 102   0.0000       0.570621        15.5274 
 103   0.0000       0.572006        15.5651 
 104   0.0000       0.581707        15.8291 
 105   0.0000       0.589123        16.0308 
 106   0.0000       0.592165        16.1136 
 107   0.0000       0.621773        16.9193 
 108   0.0000       0.629257        17.1230 
 109   0.0000       0.641570        17.4580 
 110   0.0000       0.660722        17.9792 
 111   0.0000       0.668997        18.2043 
 112   0.0000       0.684683        18.6312 
 113   0.0000       0.692532        18.8447 
 114   0.0000       0.698554        19.0086 
 115   0.0000       0.707614        19.2551 
 116   0.0000       0.728166        19.8144 
 117   0.0000       0.741764        20.1844 
 118   0.0000       0.756903        20.5964 
 119   0.0000       0.772494        21.0206 
 120   0.0000       0.776510        21.1299 
 121   0.0000       0.787363        21.4252 
 122   0.0000       0.800187        21.7742 
 123   0.0000       0.816576        22.2202 
 124   0.0000       0.836762        22.7695 
 125   0.0000       0.849123        23.1058 
 126   0.0000       0.849737        23.1225 
 127   0.0000       0.856999        23.3201 
 128   0.0000       0.884620        24.0717 
 129   0.0000       0.905638        24.6437 
 130   0.0000       0.919909        25.0320 
 131   0.0000       0.929557        25.2945 
 132   0.0000       0.942889        25.6573 
 133   0.0000       0.952720        25.9248 
 134   0.0000       0.968659        26.3586 
 135   0.0000       0.972750        26.4699 
 136   0.0000       0.991276        26.9740 
 137   0.0000       1.000410        27.2225 
 138   0.0000       1.020910        27.7804 
 139   0.0000       1.039373        28.2828 
 140   0.0000       1.046386        28.4736 
 141   0.0000       1.079236        29.3675 
 142   0.0000       1.125647        30.6304 
 143   0.0000       1.143672        31.1209 
 144   0.0000       1.159526        31.5523 
 145   0.0000       1.170820        31.8596 
 146   0.0000       1.204222        32.7685 
 147   0.0000       1.217740        33.1364 
 148   0.0000       1.232984        33.5512 
 149   0.0000       1.244391        33.8616 
 150   0.0000       1.252474        34.0815 
 151   0.0000       1.259144        34.2630 
 152   0.0000       1.292649        35.1748 
 153   0.0000       1.303164        35.4609 
 154   0.0000       1.331173        36.2231 
 155   0.0000       1.341138        36.4942 
 156   0.0000       1.359427        36.9919 
 157   0.0000       1.374246        37.3951 
 158   0.0000       1.423179        38.7267 
 159   0.0000       1.441350        39.2211 
 160   0.0000       1.464678        39.8559 
 161   0.0000       1.475767        40.1577 
 162   0.0000       1.485336        40.4180 
 163   0.0000       1.492000        40.5994 
 164   0.0000       1.507706        41.0268 
 165   0.0000       1.514430        41.2097 
 166   0.0000       1.516531        41.2669 
 167   0.0000       1.523522        41.4571 
 168   0.0000       1.532458        41.7003 
 169   0.0000       1.551378        42.2151 
 170   0.0000       1.556977        42.3675 
 171   0.0000       1.562245        42.5109 
 172   0.0000       1.567210        42.6459 
 173   0.0000       1.590252        43.2729 
 174   0.0000       1.595345        43.4115 
 175   0.0000       1.611211        43.8433 
 176   0.0000       1.618205        44.0336 
 177   0.0000       1.627657        44.2908 
 178   0.0000       1.649345        44.8810 
 179   0.0000       1.666114        45.3373 
 180   0.0000       1.682176        45.7743 
 181   0.0000       1.690162        45.9917 
 182   0.0000       1.695970        46.1497 
 183   0.0000       1.704003        46.3683 
 184   0.0000       1.721772        46.8518 
 185   0.0000       1.740462        47.3604 
 186   0.0000       1.776524        48.3417 
 187   0.0000       1.788583        48.6698 
 188   0.0000       1.808705        49.2174 
 189   0.0000       1.827324        49.7240 
 190   0.0000       1.834085        49.9080 
 191   0.0000       1.844338        50.1870 
 192   0.0000       1.853765        50.4435 
 193   0.0000       1.863078        50.6969 
 194   0.0000       1.869573        50.8737 
 195   0.0000       1.881807        51.2066 
 196   0.0000       1.900075        51.7037 
 197   0.0000       1.916839        52.1599 
 198   0.0000       1.924216        52.3606 
 199   0.0000       1.962213        53.3945 
 200   0.0000       1.980193        53.8838 
 201   0.0000       2.021667        55.0123 
 202   0.0000       2.036059        55.4040 
 203   0.0000       2.053516        55.8790 
 204   0.0000       2.066137        56.2225 
 205   0.0000       2.079254        56.5794 
 206   0.0000       2.089059        56.8462 
 207   0.0000       2.093812        56.9755 
 208   0.0000       2.107865        57.3579 
 209   0.0000       2.135091        58.0988 
 210   0.0000       2.154503        58.6270 
[...]
      f+2     :     0.006472
      f-2     :     0.009511
      f+3     :     0.014199
      f-3     :     0.007405
  3 C s       :     2.761939  s :     2.761939
      pz      :     0.927640  p :     2.924248
      px      :     0.996347
      py      :     1.000261
      dz2     :     0.041339  d :     0.381739
      dxz     :     0.079774
      dyz     :     0.053270
      dx2y2   :     0.091465
      dxy     :     0.115892
      f0      :     0.004849  f :     0.043257
      f+1     :     0.002622
      f-1     :     0.005579
      f+2     :     0.005859
      f-2     :     0.007347
      f+3     :     0.010507
      f-3     :     0.006495
  4 C s       :     2.759406  s :     2.759406
      pz      :     0.914700  p :     2.881557
      px      :     0.987660
      py      :     0.979197
      dz2     :     0.071746  d :     0.384562
      dxz     :     0.056137
      dyz     :     0.066414
      dx2y2   :     0.087000
      dxy     :     0.103264
      f0      :     0.003374  f :     0.042717
      f+1     :     0.005168
      f-1     :     0.005658
      f+2     :     0.006700
      f-2     :     0.007726
      f+3     :     0.008133
      f-3     :     0.005958
  5 C s       :     2.726005  s :     2.726005
      pz      :     0.884382  p :     2.784322
      px      :     1.034298
      py      :     0.865642
      dz2     :     0.067187  d :     0.492315
      dxz     :     0.099930
      dyz     :     0.073679
      dx2y2   :     0.136183
      dxy     :     0.115337
      f0      :     0.005688  f :     0.055068
      f+1     :     0.006855
      f-1     :     0.005323
      f+2     :     0.007309
      f-2     :     0.008937
      f+3     :     0.013552
      f-3     :     0.007403
  6 C s       :     2.758218  s :     2.758218
      pz      :     0.914600  p :     2.893982
      px      :     0.996244
      py      :     0.983138
      dz2     :     0.042062  d :     0.382582
      dxz     :     0.083344
      dyz     :     0.054996
      dx2y2   :     0.090068
      dxy     :     0.112112
      f0      :     0.004830  f :     0.042931
      f+1     :     0.002627
      f-1     :     0.005632
      f+2     :     0.006001
      f-2     :     0.007440
      f+3     :     0.010002
      f-3     :     0.006399
  7 C s       :     2.765073  s :     2.765073
      pz      :     0.930017  p :     2.918552
      px      :     0.986526
      py      :     1.002010
      dz2     :     0.068574  d :     0.387032
      dxz     :     0.057910
      dyz     :     0.063460
      dx2y2   :     0.086760
      dxy     :     0.110328
      f0      :     0.003446  f :     0.043175
      f+1     :     0.005180
      f-1     :     0.005590
      f+2     :     0.006754
      f-2     :     0.007757
      f+3     :     0.008375
      f-3     :     0.006074
  8 C s       :     2.745268  s :     2.745268
      pz      :     0.993498  p :     2.696584
      px      :     0.743458
      py      :     0.959628
      dz2     :     0.274654  d :     1.051700
      dxz     :     0.193136
      dyz     :     0.369513
      dx2y2   :     0.105242
      dxy     :     0.109155
      f0      :     0.024996  f :     0.148966
      f+1     :     0.019041
      f-1     :     0.050970
      f+2     :     0.014724
      f-2     :     0.019505
      f+3     :     0.010611
      f-3     :     0.009118
  9 O s       :     3.442604  s :     3.442604
      pz      :     1.465874  p :     4.412361
      px      :     1.503240
      py      :     1.443246
      dz2     :     0.011976  d :     0.061530
      dxz     :     0.005268
      dyz     :     0.021759
      dx2y2   :     0.014371
      dxy     :     0.008156
      f0      :     0.000585  f :     0.005175
      f+1     :     0.000102
      f-1     :     0.001567
      f+2     :     0.001218
      f-2     :     0.000701
      f+3     :     0.000372
      f-3     :     0.000630
 10 O s       :     3.415630  s :     3.415630
      pz      :     1.483159  p :     4.500051
      px      :     1.398891
      py      :     1.618002
      dz2     :     0.029653  d :     0.063056
      dxz     :     0.014832
      dyz     :     0.017070
      dx2y2   :     0.000709
      dxy     :     0.000793
      f0      :     0.002332  f :     0.005711
      f+1     :     0.001347
      f-1     :     0.001650
      f+2     :     0.000154
      f-2     :     0.000212
      f+3     :     0.000007
      f-3     :     0.000008
 11 H s       :     0.796249  s :     0.796249
      pz      :     0.021244  p :     0.067030
      px      :     0.013041
      py      :     0.032746
 12 H s       :     0.799106  s :     0.799106
      pz      :     0.024574  p :     0.067629
      px      :     0.015264
      py      :     0.027792
 13 H s       :     0.799068  s :     0.799068
      pz      :     0.026282  p :     0.067655
      px      :     0.026655
      py      :     0.014717
 14 H s       :     0.768012  s :     0.768012
      pz      :     0.019049  p :     0.063251
      px      :     0.028439
      py      :     0.015762
 15 H s       :     0.767300  s :     0.767300
      pz      :     0.011461  p :     0.060977
      px      :     0.033294
      py      :     0.016222
 16 H s       :     0.767542  s :     0.767542
      pz      :     0.018281  p :     0.061019
      px      :     0.027471
      py      :     0.015267
 17 H s       :     0.771950  s :     0.771950
      pz      :     0.011825  p :     0.061637
      px      :     0.033796
      py      :     0.016016

SPIN
  0 C s       :    -0.000655  s :    -0.000655
      pz      :    -0.000531  p :    -0.004013
      px      :    -0.002909
      py      :    -0.000572
      dz2     :     0.001981  d :     0.015808
      dxz     :     0.007675
      dyz     :     0.000491
      dx2y2   :     0.000997
      dxy     :     0.004664
      f0      :     0.000003  f :     0.001082
      f+1     :     0.000580
      f-1     :     0.000083
      f+2     :     0.000144
      f-2     :     0.000018
      f+3     :     0.000034
      f-3     :     0.000221
  1 S s       :     0.003889  s :     0.003889
      pz      :     0.142482  p :     0.227029
      px      :     0.009854
      py      :     0.074693
      dz2     :     0.003045  d :     0.011007
      dxz     :     0.002447
      dyz     :     0.003408
      dx2y2   :     0.002274
      dxy     :    -0.000167
      f0      :    -0.000114  f :     0.001244
      f+1     :     0.000010
      f-1     :     0.001279
      f+2     :    -0.000115
      f-2     :     0.000103
      f+3     :    -0.000086
      f-3     :     0.000167
  2 C s       :     0.002287  s :     0.002287
      pz      :     0.055818  p :     0.088269
      px      :     0.004566
      py      :     0.027885
      dz2     :     0.005536  d :     0.009968
      dxz     :     0.000882
      dyz     :     0.001691
      dx2y2   :     0.001510
      dxy     :     0.000350
      f0      :     0.000041  f :     0.000906
      f+1     :     0.000265
      f-1     :     0.000353
      f+2     :     0.000022
      f-2     :    -0.000074
      f+3     :    -0.000020
      f-3     :     0.000319
  3 C s       :     0.000042  s :     0.000042
      pz      :     0.014194  p :     0.014589
      px      :    -0.000357
      py      :     0.000752
      dz2     :     0.003267  d :     0.013385
      dxz     :     0.003399
      dyz     :     0.002198
      dx2y2   :     0.003801
      dxy     :     0.000719
      f0      :     0.000476  f :     0.001625
      f+1     :    -0.000012
      f-1     :     0.000313
      f+2     :     0.000196
      f-2     :     0.000098
      f+3     :     0.000304
      f-3     :     0.000249
  4 C s       :     0.000461  s :     0.000461
      pz      :     0.025104  p :     0.033650
      px      :     0.000989
      py      :     0.007557
      dz2     :     0.005403  d :     0.012071
      dxz     :     0.000674
      dyz     :    -0.000528
      dx2y2   :     0.002588
      dxy     :     0.003934
      f0      :    -0.000009  f :     0.001631
      f+1     :     0.000622
      f-1     :     0.000062
      f+2     :     0.000239
      f-2     :    -0.000018
      f+3     :     0.000260
      f-3     :     0.000475
  5 C s       :     0.003835  s :     0.003835
      pz      :     0.034598  p :     0.124779
      px      :     0.003831
      py      :     0.086350
      dz2     :     0.003292  d :     0.004337
      dxz     :     0.000283
      dyz     :     0.001093
      dx2y2   :    -0.000401
      dxy     :     0.000070
      f0      :    -0.000010  f :     0.000198
      f+1     :     0.000148
      f-1     :     0.000014
      f+2     :    -0.000010
      f-2     :    -0.000128
      f+3     :    -0.000098
      f-3     :     0.000283
  6 C s       :    -0.000175  s :    -0.000175
      pz      :     0.010932  p :     0.010497
      px      :    -0.000109
      py      :    -0.000326
      dz2     :     0.003058  d :     0.014356
      dxz     :     0.001784
      dyz     :     0.000280
      dx2y2   :     0.006339
      dxy     :     0.002895
      f0      :     0.000357  f :     0.001970
      f+1     :     0.000012
      f-1     :     0.000198
      f+2     :     0.000141
      f-2     :    -0.000013
      f+3     :     0.000866
      f-3     :     0.000408
  7 C s       :     0.000551  s :     0.000551
      pz      :     0.023314  p :     0.029051
      px      :     0.001292
      py      :     0.004445
      dz2     :     0.004976  d :     0.008762
      dxz     :     0.000780
      dyz     :     0.000211
      dx2y2   :     0.000648
      dxy     :     0.002147
      f0      :    -0.000022  f :     0.001278
      f+1     :     0.000726
      f-1     :     0.000019
      f+2     :     0.000093
      f-2     :     0.000012
      f+3     :     0.000024
      f-3     :     0.000426
  8 C s       :    -0.001882  s :    -0.001882
      pz      :    -0.006421  p :    -0.012921
      px      :    -0.005954
      py      :    -0.000546
      dz2     :    -0.001652  d :     0.000513
      dxz     :    -0.001229
      dyz     :     0.003517
      dx2y2   :    -0.000453
      dxy     :     0.000329
      f0      :     0.000247  f :     0.019179
      f+1     :    -0.000022
      f-1     :     0.015638
      f+2     :     0.000217
      f-2     :     0.001352
      f+3     :     0.000182
      f-3     :     0.001564
  9 O s       :     0.004781  s :     0.004781
      pz      :     0.162511  p :     0.318241
      px      :     0.021534
      py      :     0.134195
      dz2     :     0.000676  d :     0.001087
      dxz     :    -0.000011
      dyz     :     0.000162
      dx2y2   :     0.000333
      dxy     :    -0.000073
      f0      :    -0.000026  f :    -0.000005
      f+1     :     0.000004
      f-1     :     0.000059
      f+2     :    -0.000052
      f-2     :    -0.000021
      f+3     :     0.000002
      f-3     :     0.000028
 10 O s       :    -0.000034  s :    -0.000034
      pz      :     0.003166  p :     0.025633
      px      :    -0.003794
      py      :     0.026261
      dz2     :    -0.000087  d :    -0.000491
      dxz     :    -0.000191
      dyz     :    -0.000164
      dx2y2   :    -0.000038
      dxy     :    -0.000011
      f0      :    -0.000010  f :    -0.000041
      f+1     :    -0.000016
      f-1     :    -0.000008
      f+2     :    -0.000003
      f-2     :    -0.000001
      f+3     :    -0.000001
      f-3     :    -0.000000
 11 H s       :    -0.000137  s :    -0.000137
      pz      :    -0.000028  p :    -0.000120
      px      :    -0.000074
      py      :    -0.000018
 12 H s       :     0.006741  s :     0.006741
      pz      :    -0.000099  p :    -0.000300
      px      :    -0.000112
      py      :    -0.000089
 13 H s       :     0.006818  s :     0.006818
      pz      :    -0.000089  p :    -0.000289
      px      :    -0.000177
      py      :    -0.000022
 14 H s       :    -0.000489  s :    -0.000489
      pz      :     0.000312  p :     0.000404
      px      :     0.000078
      py      :     0.000014
 15 H s       :    -0.000898  s :    -0.000898
      pz      :     0.000468  p :     0.000787
      px      :     0.000115
      py      :     0.000204
 16 H s       :    -0.000274  s :    -0.000274
      pz      :     0.000156  p :     0.000227
      px      :     0.000044
      py      :     0.000027
 17 H s       :    -0.000893  s :    -0.000893
      pz      :     0.000467  p :     0.000648
      px      :     0.000100
      py      :     0.000080


                      *****************************
                      * MAYER POPULATION ANALYSIS *
                      *****************************

  NA   - Mulliken gross atomic population
  ZA   - Total nuclear charge
  QA   - Mulliken gross atomic charge
  VA   - Mayer's total valence
  BVA  - Mayer's bonded valence
  FA   - Mayer's free valence

  ATOM       NA         ZA         QA         VA         BVA        FA
  0 C      6.4163     6.0000    -0.4163     3.8926     3.8925     0.0002
  1 S     15.9160    16.0000     0.0840     2.7435     2.6715     0.0720
  2 C      5.8155     6.0000     0.1845     3.8228     3.8071     0.0157
  3 C      6.1976     6.0000    -0.1976     3.8861     3.8849     0.0012
  4 C      6.2125     6.0000    -0.2125     3.9922     3.9894     0.0028
  5 C      5.8377     6.0000     0.1623     3.5778     3.5481     0.0296
  6 C      6.2147     6.0000    -0.2147     3.9967     3.9956     0.0010
  7 C      6.1595     6.0000    -0.1595     3.8781     3.8760     0.0020
  8 C      5.7454     6.0000     0.2546     4.5580     4.5571     0.0010
  9 O      8.3649     8.0000    -0.3649     2.1409     2.0256     0.1152
 10 O      8.4325     8.0000    -0.4325     2.0591     2.0579     0.0012
 11 H      0.7966     1.0000     0.2034     0.9527     0.9527     0.0000
 12 H      0.8051     1.0000     0.1949     0.9554     0.9553     0.0001
 13 H      0.8055     1.0000     0.1945     0.9552     0.9551     0.0001
 14 H      0.8142     1.0000     0.1858     0.9591     0.9591     0.0000
 15 H      0.8204     1.0000     0.1796     0.9590     0.9590     0.0000
 16 H      0.8216     1.0000     0.1784     0.9578     0.9578     0.0000
 17 H      0.8240     1.0000     0.1760     0.9617     0.9617     0.0000

  Mayer bond orders larger than 0.100000
B(  0-C ,  1-S ) :   1.0479 B(  0-C , 11-H ) :   0.9299 B(  0-C , 12-H ) :   0.9382 
B(  0-C , 13-H ) :   0.9371 B(  1-S ,  2-C ) :   1.3006 B(  2-C ,  3-C ) :   1.2157 
B(  2-C ,  7-C ) :   1.1892 B(  3-C ,  4-C ) :   1.5219 B(  3-C , 14-H ) :   0.9513 
B(  4-C ,  5-C ) :   1.2561 B(  4-C , 15-H ) :   0.9622 B(  5-C ,  6-C ) :   1.2488 
B(  5-C ,  8-C ) :   0.8669 B(  5-C ,  9-O ) :   0.1029 B(  6-C ,  7-C ) :   1.5495 
B(  6-C , 16-H ) :   0.9702 B(  7-C , 17-H ) :   0.9629 B(  8-C ,  9-O ) :   1.6128 
B(  8-C , 10-O ) :   1.9782 

-------
TIMINGS
-------

Total SCF time: 0 days 0 hours 5 min 52 sec 

Total time                  ....     352.773 sec
Sum of individual times     ....     322.542 sec  ( 91.4%)

Fock matrix formation       ....     184.849 sec  ( 52.4%)
  Split-RI-J                ....      28.098 sec  ( 15.2% of F)
  Chain of spheres X        ....      73.317 sec  ( 39.7% of F)
  XC integration            ....      20.927 sec  ( 11.3% of F)
    Basis function eval.    ....       2.002 sec  (  9.6% of XC)
    Density eval.           ....       4.522 sec  ( 21.6% of XC)
    XC-Functional eval.     ....       0.543 sec  (  2.6% of XC)
    XC-Potential eval.      ....       3.846 sec  ( 18.4% of XC)
Diagonalization             ....      51.797 sec  ( 14.7%)
Density matrix formation    ....       2.427 sec  (  0.7%)
Population analysis         ....       3.482 sec  (  1.0%)
Initial guess               ....       0.454 sec  (  0.1%)
Orbital Transformation      ....       0.000 sec  (  0.0%)
Orbital Orthonormalization  ....       0.168 sec  (  0.0%)
DIIS solution               ....      71.401 sec  ( 20.2%)
Grid generation             ....       8.131 sec  (  2.3%)

Maximum memory used throughout the entire SCF-calculation: 95.1 MB


-------------------------------------------------------------------------------
                          DFT DISPERSION CORRECTION                            
                                                                               
                              DFTD3 V3.1  Rev 1                                
                          USING Becke-Johnson damping                          
-------------------------------------------------------------------------------
The PBE0 functional is recognized
Active option DFTDOPT                   ...         4   

molecular C6(AA) [au] = 4868.679889 


            DFT-D V3
 parameters
 s6 scaling factor         :     1.0000 
 a1 scaling factor         :     0.4145 
 s8 scaling factor         :     1.2177 
 a2 scaling factor         :     4.8593 
 ad hoc parameters k1-k3   :    16.0000     1.3333    -4.0000 

 Edisp/kcal,au: -11.849921288318  -0.018884049587 
 E6   /kcal   :  -7.209628425 
 E8   /kcal   :  -4.640292863 
 % E8         :  39.158849670 

-------------------------   ----------------
Dispersion correction           -0.018884050
-------------------------   ----------------


-------------------------   --------------------
FINAL SINGLE POINT ENERGY      -857.219466600269
-------------------------   --------------------

                                *** OPTIMIZATION RUN DONE ***

                            ***************************************
                            *     ORCA property calculations      *
                            ***************************************

                                    ---------------------
                                    Active property flags
                                    ---------------------
   (+) Dipole Moment


------------------------------------------------------------------------------
                       ORCA ELECTRIC PROPERTIES CALCULATION
------------------------------------------------------------------------------

Dipole Moment Calculation                       ... on
Quadrupole Moment Calculation                   ... off
Polarizability Calculation                      ... off
GBWName                                         ... /burg/berkelbach/users/eav2136/projects/peroxide_dissociation/04_solvated_radical/dmf/dmf_radical_opt.gbw
Electron density                                ... /burg/berkelbach/users/eav2136/projects/peroxide_dissociation/04_solvated_radical/dmf/dmf_radical_opt.scfp
The origin for moment calculation is the CENTER OF MASS  = ( 1.625484,  6.629173  2.169092)

-------------
DIPOLE MOMENT
-------------
                                X             Y             Z
Electronic contribution:      2.90651      -3.50222      -3.23427
Nuclear contribution   :     -3.08499       8.22403       6.80555
                        -----------------------------------------
Total Dipole Moment    :     -0.17848       4.72180       3.57128
                        -----------------------------------------
Magnitude (a.u.)       :      5.92295
Magnitude (Debye)      :     15.05494



--------------------
Rotational spectrum 
--------------------
 
Rotational constants in cm-1:     0.103163     0.015160     0.014128 
Rotational constants in MHz :  3092.751396   454.494929   423.557009 

 Dipole components along the rotational axes: 
x,y,z [a.u.] :     5.902825     0.479852     0.087766 
x,y,z [Debye]:    15.003789     1.219686     0.223084 

 

Timings for individual modules:

Sum of individual times         ...     8668.608 sec (= 144.477 min)
GTO integral calculation        ...      126.030 sec (=   2.101 min)   1.5 %
SCF iterations                  ...     8086.851 sec (= 134.781 min)  93.3 %
SCF Gradient evaluation         ...      452.943 sec (=   7.549 min)   5.2 %
Geometry relaxation             ...        2.783 sec (=   0.046 min)   0.0 %
                             ****ORCA TERMINATED NORMALLY****
TOTAL RUN TIME: 0 days 2 hours 27 minutes 0 seconds 244 msec
