Job execution start: Fri Apr 22 10:37:08 EDT 2022
Shared library path: /cm/shared/apps/cuda11.0/toolkit/11.0.3/compat:/burg/berkelbach/users/eav2136/builds/orca/5.0.3/orca:/cm/shared/apps/ucx/1.8.1/lib64:/cm/local/apps/cuda/libs/current/lib64:/cm/shared/apps/cuda11.0/toolkit/11.0.3/targets/x86_64-linux/lib:/cm/shared/apps/cuda11.0/visual-tools/11.0.3/libnvvp:/burg/opt/openmpi-4.1.1_ucx_cuda_11.0.3_support/lib:/cm/shared/apps/slurm/current/lib64/slurm:/cm/shared/apps/slurm/current/lib64
Slurm Job ID is: 1844785
Slurm Job name is: nmf_peroxide_opt
g067

                                 *****************
                                 * O   R   C   A *
                                 *****************

                                            #,                                       
                                            ###                                      
                                            ####                                     
                                            #####                                    
                                            ######                                   
                                           ########,                                 
                                     ,,################,,,,,                         
                               ,,#################################,,                 
                          ,,##########################################,,             
                       ,#########################################, ''#####,          
                    ,#############################################,,   '####,        
                  ,##################################################,,,,####,       
                ,###########''''           ''''###############################       
              ,#####''   ,,,,##########,,,,          '''####'''          '####       
            ,##' ,,,,###########################,,,                        '##       
           ' ,,###''''                  '''############,,,                           
         ,,##''                                '''############,,,,        ,,,,,,###''
      ,#''                                            '''#######################'''  
     '                                                          ''''####''''         
             ,#######,   #######,   ,#######,      ##                                
            ,#'     '#,  ##    ##  ,#'     '#,    #''#        ######   ,####,        
            ##       ##  ##   ,#'  ##            #'  '#       #        #'  '#        
            ##       ##  #######   ##           ,######,      #####,   #    #        
            '#,     ,#'  ##    ##  '#,     ,#' ,#      #,         ##   #,  ,#        
             '#######'   ##     ##  '#######'  #'      '#     #####' # '####'        



                  #######################################################
                  #                        -***-                        #
                  #          Department of theory and spectroscopy      #
                  #    Directorship and core code : Frank Neese         #
                  #        Max Planck Institute fuer Kohlenforschung    #
                  #                Kaiser Wilhelm Platz 1               #
                  #                 D-45470 Muelheim/Ruhr               #
                  #                      Germany                        #
                  #                                                     #
                  #                  All rights reserved                #
                  #                        -***-                        #
                  #######################################################


                         Program Version 5.0.3 -  RELEASE  -


 With contributions from (in alphabetic order):
   Daniel Aravena         : Magnetic Suceptibility
   Michael Atanasov       : Ab Initio Ligand Field Theory (pilot matlab implementation)
   Alexander A. Auer      : GIAO ZORA, VPT2 properties, NMR spectrum
   Ute Becker             : Parallelization
   Giovanni Bistoni       : ED, misc. LED, open-shell LED, HFLD
   Martin Brehm           : Molecular dynamics
   Dmytro Bykov           : SCF Hessian
   Vijay G. Chilkuri      : MRCI spin determinant printing, contributions to CSF-ICE
   Dipayan Datta          : RHF DLPNO-CCSD density
   Achintya Kumar Dutta   : EOM-CC, STEOM-CC
   Dmitry Ganyushin       : Spin-Orbit,Spin-Spin,Magnetic field MRCI
   Miquel Garcia          : C-PCM and meta-GGA Hessian, CC/C-PCM, Gaussian charge scheme
   Yang Guo               : DLPNO-NEVPT2, F12-NEVPT2, CIM, IAO-localization
   Andreas Hansen         : Spin unrestricted coupled pair/coupled cluster methods
   Benjamin Helmich-Paris : MC-RPA, TRAH-SCF, COSX integrals
   Lee Huntington         : MR-EOM, pCC
   Robert Izsak           : Overlap fitted RIJCOSX, COSX-SCS-MP3, EOM
   Marcus Kettner         : VPT2
   Christian Kollmar      : KDIIS, OOCD, Brueckner-CCSD(T), CCSD density, CASPT2, CASPT2-K
   Simone Kossmann        : Meta GGA functionals, TD-DFT gradient, OOMP2, MP2 Hessian
   Martin Krupicka        : Initial AUTO-CI
   Lucas Lang             : DCDCAS
   Marvin Lechner         : AUTO-CI (C++ implementation), FIC-MRCC
   Dagmar Lenk            : GEPOL surface, SMD
   Dimitrios Liakos       : Extrapolation schemes; Compound Job, initial MDCI parallelization
   Dimitrios Manganas     : Further ROCIS development; embedding schemes
   Dimitrios Pantazis     : SARC Basis sets
   Anastasios Papadopoulos: AUTO-CI, single reference methods and gradients
   Taras Petrenko         : DFT Hessian,TD-DFT gradient, ASA, ECA, R-Raman, ABS, FL, XAS/XES, NRVS
   Peter Pinski           : DLPNO-MP2, DLPNO-MP2 Gradient
   Christoph Reimann      : Effective Core Potentials
   Marius Retegan         : Local ZFS, SOC
   Christoph Riplinger    : Optimizer, TS searches, QM/MM, DLPNO-CCSD(T), (RO)-DLPNO pert. Triples
   Tobias Risthaus        : Range-separated hybrids, TD-DFT gradient, RPA, STAB
   Michael Roemelt        : Original ROCIS implementation
   Masaaki Saitow         : Open-shell DLPNO-CCSD energy and density
   Barbara Sandhoefer     : DKH picture change effects
   Avijit Sen             : IP-ROCIS
   Kantharuban Sivalingam : CASSCF convergence, NEVPT2, FIC-MRCI
   Bernardo de Souza      : ESD, SOC TD-DFT
   Georgi Stoychev        : AutoAux, RI-MP2 NMR, DLPNO-MP2 response
   Willem Van den Heuvel  : Paramagnetic NMR
   Boris Wezisla          : Elementary symmetry handling
   Frank Wennmohs         : Technical directorship


 We gratefully acknowledge several colleagues who have allowed us to
 interface, adapt or use parts of their codes:
   Stefan Grimme, W. Hujo, H. Kruse, P. Pracht,  : VdW corrections, initial TS optimization,
                  C. Bannwarth, S. Ehlert          DFT functionals, gCP, sTDA/sTD-DF
   Ed Valeev, F. Pavosevic, A. Kumar             : LibInt (2-el integral package), F12 methods
   Garnet Chan, S. Sharma, J. Yang, R. Olivares  : DMRG
   Ulf Ekstrom                                   : XCFun DFT Library
   Mihaly Kallay                                 : mrcc  (arbitrary order and MRCC methods)
   Jiri Pittner, Ondrej Demel                    : Mk-CCSD
   Frank Weinhold                                : gennbo (NPA and NBO analysis)
   Christopher J. Cramer and Donald G. Truhlar   : smd solvation model
   Lars Goerigk                                  : TD-DFT with DH, B97 family of functionals
   V. Asgeirsson, H. Jonsson                     : NEB implementation
   FAccTs GmbH                                   : IRC, NEB, NEB-TS, DLPNO-Multilevel, CI-OPT
                                                   MM, QMMM, 2- and 3-layer-ONIOM, Crystal-QMMM,
                                                   LR-CPCM, SF, NACMEs, symmetry and pop. for TD-DFT,
                                                   nearIR, NL-DFT gradient (VV10), updates on ESD,
                                                   ML-optimized integration grids
   S Lehtola, MJT Oliveira, MAL Marques          : LibXC Library
   Liviu Ungur et al                             : ANISO software


 Your calculation uses the libint2 library for the computation of 2-el integrals
 For citations please refer to: http://libint.valeyev.net

 Your ORCA version has been built with support for libXC version: 5.1.0
 For citations please refer to: https://tddft.org/programs/libxc/

 This ORCA versions uses:
   CBLAS   interface :  Fast vector & matrix operations
   LAPACKE interface :  Fast linear algebra routines
   SCALAPACK package :  Parallel linear algebra routines
   Shared memory     :  Shared parallel matrices
   BLAS/LAPACK       :  OpenBLAS 0.3.15  USE64BITINT DYNAMIC_ARCH NO_AFFINITY SkylakeX SINGLE_THREADED
        Core in use  :  SkylakeX
   Copyright (c) 2011-2014, The OpenBLAS Project


Your calculation utilizes the atom-pairwise dispersion correction
with the Becke-Johnson damping scheme (D3BJ)
Cite in your paper:
S.Grimme, S.Ehrlich, L.Goerigk, J Comput Chem, (2011), 32, 1456–1465 
S.Grimme, J.Antony, S.Ehrlich and H.Krieg, J.Chem.Phys., 132, (2010), 154104 
   

Your calculation utilizes the SMD solvation module
Please cite in your paper:
A.V. Marenich, C.J. Cramer, D.G. Truhlar J. Phys. Chem. B, 113, (2009), 6378 

================================================================================

----- Orbital basis set information -----
Your calculation utilizes the basis: def2-TZVP
   F. Weigend and R. Ahlrichs, Phys. Chem. Chem. Phys. 7, 3297 (2005).

----- AuxJ basis set information -----
Your calculation utilizes the auxiliary basis: def2/J
   F. Weigend, Phys. Chem. Chem. Phys. 8, 1057 (2006).

================================================================================
                                        WARNINGS
                       Please study these warnings very carefully!
================================================================================


WARNING: Geometry Optimization
  ===> : Switching off AutoStart
         For restart on a previous wavefunction, please use MOREAD

INFO   : the flag for use of the SHARK integral package has been found!

================================================================================
                                       INPUT FILE
================================================================================
NAME = /burg/berkelbach/users/eav2136/projects/peroxide_dissociation/04_solvated_radical/nmf_peroxide/nmf_peroxide_opt.inp
|  1> ! UKS PBE0 def2-TZVP def2/J RIJCOSX D3BJ TIGHTSCF Opt CPCM PAL8
|  2> %maxcore 5000
|  3> %cpcm
|  4> smd true
|  5> SMDsolvent "N-METHYLFORMAMIDE"
|  6> end
|  7> * xyz 0 1
|  8>  C -0.07425707479814 6.45007760366319 3.54636897867849
|  9>  S 1.48979584793712 6.08048225687873 2.75598260255209
| 10>  C 1.14936654141856 4.63662227087222 1.83369205968326
| 11>  C -0.09136557109480 4.00305286554088 1.79338352444578
| 12>  C -0.25826928718407 2.84269542505768 1.05936282240646
| 13>  C 0.80050967676942 2.30271389692801 0.33923873907232
| 14>  C 2.02875697338567 2.96040825022008 0.34201900047512
| 15>  C 2.20764771123846 4.10330343094754 1.09121055149825
| 16>  C 0.66254428710301 1.09941809961861 -0.50690159852297
| 17>  O 0.00000000000000 0.00000000000000 0.00000000000000
| 18>  O 1.06713866538631 0.98717129960580 -1.62357736506780
| 19>  O 0.00000000000000 0.00000000000000 1.41527284498687
| 20>  C -1.27388770944479 0.00000000000000 1.91590645535523
| 21>  C -1.22211457253867 0.06642777988277 3.38831477989974
| 22>  O -2.25742922897412 -0.02585779042736 1.23875652957256
| 23>  C -2.41543940252313 -0.12289611375011 4.08595252694906
| 24>  C -2.44195923478874 -0.03437680070658 5.45887710053507
| 25>  C -1.27275068522395 0.25496212808386 6.17298493884884
| 26>  C -0.08177795586127 0.45060655108151 5.47518008098465
| 27>  C -0.05890441770979 0.35440376081578 4.09544628781756
| 28>  S -1.42666733932306 0.34986111841343 7.90788531117200
| 29>  C 0.24316058065577 0.68495422113854 8.46194522255982
| 30>  H 0.10416325535368 7.34607684664392 4.14087383255362
| 31>  H -0.38882275224257 5.64387294862163 4.21002028523424
| 32>  H -0.85323854703301 6.66443357654391 2.81385647784552
| 33>  H -0.93700004363157 4.40513362395569 2.33421606140266
| 34>  H -1.23507439683237 2.37497021944690 1.02749021968162
| 35>  H 2.84544686618639 2.55882587909200 -0.24576673820719
| 36>  H 3.17295340310622 4.59670965109571 1.10248346369500
| 37>  H -3.31769085302541 -0.33900022625314 3.52707230389961
| 38>  H -3.37188538809726 -0.18808364875198 5.99464715790180
| 39>  H 0.83479761044422 0.68252071425859 5.99988733430662
| 40>  H 0.87046926144621 0.51883617942438 3.56602510045047
| 41>  H 0.18454114424639 0.73729393679500 9.54909076814075
| 42>  H 0.60864534290486 1.64029462399245 8.08374213903351
| 43>  H 0.92507514742305 -0.11949528816653 8.18458994466104
| 44> *
| 45> 
| 46>                          ****END OF INPUT****
================================================================================

                       *****************************
                       * Geometry Optimization Run *
                       *****************************

Geometry optimization settings:
Update method            Update   .... BFGS
Choice of coordinates    CoordSys .... Z-matrix Internals
Initial Hessian          InHess   .... Almoef's Model

Convergence Tolerances:
Energy Change            TolE     ....  5.0000e-06 Eh
Max. Gradient            TolMAXG  ....  3.0000e-04 Eh/bohr
RMS Gradient             TolRMSG  ....  1.0000e-04 Eh/bohr
Max. Displacement        TolMAXD  ....  4.0000e-03 bohr
RMS Displacement         TolRMSD  ....  2.0000e-03 bohr
Strict Convergence                ....  False
------------------------------------------------------------------------------
                        ORCA OPTIMIZATION COORDINATE SETUP
------------------------------------------------------------------------------

The optimization will be done in new redundant internal coordinates
Making redundant internal coordinates   ...  (new redundants) done
Evaluating the initial hessian          ...  (Almloef) done
Evaluating the coordinates              ...  done
Calculating the B-matrix                .... done
Calculating the G-matrix                .... done
Diagonalizing the G-matrix              .... done
Small eigenvalue found = 6.813e-04
Small eigenvalue found = 1.847e-03
Small eigenvalue found = 4.132e-03
Small eigenvalue found = 1.197e-02
Small eigenvalue found = 1.299e-02
Small eigenvalue found = 2.647e-02
The first mode is                       ....   64
The number of degrees of freedom        ....  102

    -----------------------------------------------------------------
                    Redundant Internal Coordinates


    -----------------------------------------------------------------
         Definition                    Initial Value    Approx d2E/dq
    -----------------------------------------------------------------
      1. B(S   1,C   0)                  1.7910         0.386175   
      2. B(C   2,S   1)                  1.7468         0.454240   
      3. B(C   3,C   2)                  1.3937         0.616320   
      4. B(C   4,C   3)                  1.3831         0.640745   
      5. B(C   5,C   4)                  1.3897         0.625563   
      6. B(C   6,C   5)                  1.3933         0.617369   
      7. B(C   7,C   2)                  1.3985         0.605696   
      8. B(C   7,C   6)                  1.3782         0.652421   
      9. B(C   8,C   5)                  1.4775         0.453096   
     10. B(O   9,C   8)                  1.3801         0.580356   
     11. B(O  10,C   8)                  1.1930         1.153901   
     12. B(O  11,O   9)                  1.4153         0.456763   
     13. B(C  12,O  11)                  1.3687         0.605075   
     14. B(C  13,C  12)                  1.4748         0.457532   
     15. B(O  14,C  12)                  1.1944         1.148067   
     16. B(C  15,C  13)                  1.3952         0.612988   
     17. B(C  16,C  15)                  1.3760         0.657696   
     18. B(C  17,C  16)                  1.4003         0.601695   
     19. B(C  18,C  17)                  1.3941         0.615367   
     20. B(C  19,C  18)                  1.3833         0.640430   
     21. B(C  19,C  13)                  1.3914         0.621567   
     22. B(S  20,C  17)                  1.7443         0.458402   
     23. B(C  21,S  20)                  1.7910         0.386167   
     24. B(H  22,C   0)                  1.0900         0.360109   
     25. B(H  23,C   0)                  1.0906         0.359342   
     26. B(H  24,C   0)                  1.0906         0.359351   
     27. B(H  25,C   3)                  1.0813         0.371759   
     28. B(H  26,C   4)                  1.0835         0.368828   
     29. B(H  27,C   6)                  1.0834         0.368946   
     30. B(H  28,C   7)                  1.0842         0.367916   
     31. B(H  29,C  15)                  1.0831         0.369344   
     32. B(H  30,C  16)                  1.0842         0.367887   
     33. B(H  31,C  18)                  1.0813         0.371793   
     34. B(H  32,C  19)                  1.0822         0.370628   
     35. B(H  33,C  21)                  1.0900         0.360124   
     36. B(H  34,C  21)                  1.0905         0.359378   
     37. B(H  35,C  21)                  1.0904         0.359511   
     38. A(H  22,C   0,H  23)          108.8436         0.290744   
     39. A(H  22,C   0,H  24)          108.7656         0.290746   
     40. A(S   1,C   0,H  24)          111.5879         0.342618   
     41. A(S   1,C   0,H  23)          111.5859         0.342616   
     42. A(H  23,C   0,H  24)          110.3658         0.290648   
     43. A(S   1,C   0,H  22)          105.5091         0.342738   
     44. A(C   0,S   1,C   2)          103.4970         0.419917   
     45. A(C   3,C   2,C   7)          119.0102         0.431786   
     46. A(S   1,C   2,C   3)          124.3692         0.432719   
     47. A(S   1,C   2,C   7)          116.6202         0.431369   
     48. A(C   2,C   3,C   4)          120.2744         0.436178   
     49. A(C   4,C   3,H  25)          118.8821         0.356807   
     50. A(C   2,C   3,H  25)          120.8433         0.354461   
     51. A(C   5,C   4,H  26)          120.2581         0.354880   
     52. A(C   3,C   4,H  26)          119.1145         0.356327   
     53. A(C   3,C   4,C   5)          120.6005         0.437350   
     54. A(C   4,C   5,C   6)          119.1567         0.434432   
     55. A(C   4,C   5,C   8)          122.8259         0.411072   
     56. A(C   6,C   5,C   8)          117.8994         0.410112   
     57. A(C   7,C   6,H  27)          120.2952         0.357442   
     58. A(C   5,C   6,H  27)          119.2412         0.354107   
     59. A(C   5,C   6,C   7)          120.4618         0.437734   
     60. A(C   6,C   7,H  28)          119.9087         0.357272   
     61. A(C   2,C   7,H  28)          119.6508         0.352797   
     62. A(C   2,C   7,C   6)          120.4398         0.436231   
     63. A(O   9,C   8,O  10)          115.5727         0.473849   
     64. A(C   5,C   8,O  10)          125.5219         0.455899   
     65. A(C   5,C   8,O   9)          118.8999         0.403044   
     66. A(C   8,O   9,O  11)          111.5490         0.398410   
     67. A(O   9,O  11,C  12)          111.4547         0.401345   
     68. A(C  13,C  12,O  14)          126.5770         0.456288   
     69. A(O  11,C  12,O  14)          123.9896         0.477054   
     70. A(O  11,C  12,C  13)          109.4203         0.406723   
     71. A(C  12,C  13,C  19)          123.0966         0.411315   
     72. A(C  15,C  13,C  19)          119.2748         0.433376   
     73. A(C  12,C  13,C  15)          117.5858         0.410303   
     74. A(C  16,C  15,H  29)          120.7715         0.357997   
     75. A(C  13,C  15,H  29)          118.7871         0.353745   
     76. A(C  13,C  15,C  16)          120.4413         0.437808   
     77. A(C  17,C  16,H  30)          119.5691         0.352397   
     78. A(C  15,C  16,H  30)          120.0309         0.357757   
     79. A(C  15,C  16,C  17)          120.3999         0.436343   
     80. A(C  16,C  17,S  20)          116.4104         0.431562   
     81. A(C  18,C  17,S  20)          124.4423         0.433309   
     82. A(C  16,C  17,C  18)          119.1469         0.431152   
     83. A(C  17,C  18,C  19)          120.2393         0.436018   
     84. A(C  19,C  18,H  31)          119.0068         0.356782   
     85. A(C  17,C  18,H  31)          120.7535         0.354374   
     86. A(C  13,C  19,C  18)          120.4962         0.436806   
     87. A(C  18,C  19,H  32)          119.4465         0.356592   
     88. A(C  13,C  19,H  32)          120.0518         0.354788   
     89. A(C  17,S  20,C  21)          103.6272         0.420599   
     90. A(H  34,C  21,H  35)          110.3939         0.290673   
     91. A(H  33,C  21,H  35)          108.8290         0.290768   
     92. A(S  20,C  21,H  35)          111.4899         0.342642   
     93. A(H  33,C  21,H  34)          108.7753         0.290751   
     94. A(S  20,C  21,H  34)          111.6593         0.342620   
     95. A(S  20,C  21,H  33)          105.5095         0.342739   
     96. D(C   2,S   1,C   0,H  22)    179.5234         0.003898   
     97. D(C   2,S   1,C   0,H  23)     61.4721         0.003898   
     98. D(C   2,S   1,C   0,H  24)    -62.5176         0.003898   
     99. D(C   3,C   2,S   1,C   0)      0.0768         0.004531   
    100. D(C   7,C   2,S   1,C   0)    179.8441         0.004531   
    101. D(C   4,C   3,C   2,C   7)      1.8479         0.026266   
    102. D(C   4,C   3,C   2,S   1)   -178.3900         0.026266   
    103. D(H  25,C   3,C   2,C   7)   -178.3097         0.026266   
    104. D(H  25,C   3,C   2,S   1)      1.4524         0.026266   
    105. D(H  26,C   4,C   3,H  25)      1.1825         0.028529   
    106. D(H  26,C   4,C   3,C   2)   -178.9720         0.028529   
    107. D(C   5,C   4,C   3,H  25)    179.3028         0.028529   
    108. D(C   5,C   4,C   3,C   2)     -0.8517         0.028529   
    109. D(C   6,C   5,C   4,H  26)    176.7603         0.027109   
    110. D(C   6,C   5,C   4,C   3)     -1.3385         0.027109   
    111. D(C   8,C   5,C   4,C   3)   -177.3042         0.027109   
    112. D(C   8,C   5,C   4,H  26)      0.7946         0.027109   
    113. D(H  27,C   6,C   5,C   8)     -1.7852         0.026361   
    114. D(H  27,C   6,C   5,C   4)   -177.9495         0.026361   
    115. D(C   7,C   6,C   5,C   8)    178.6982         0.026361   
    116. D(C   7,C   6,C   5,C   4)      2.5338         0.026361   
    117. D(H  28,C   7,C   6,H  27)     -0.7379         0.029652   
    118. D(H  28,C   7,C   6,C   5)    178.7736         0.029652   
    119. D(C   2,C   7,C   6,H  27)    178.9472         0.029652   
    120. D(C   2,C   7,C   6,C   5)     -1.5413         0.029652   
    121. D(H  28,C   7,C   2,C   3)    179.0287         0.025317   
    122. D(H  28,C   7,C   2,S   1)     -0.7516         0.025317   
    123. D(C   6,C   7,C   2,C   3)     -0.6572         0.025317   
    124. D(C   6,C   7,C   2,S   1)    179.5625         0.025317   
    125. D(O   9,C   8,C   5,C   6)    137.7156         0.013991   
    126. D(O   9,C   8,C   5,C   4)    -46.2708         0.013991   
    127. D(O  10,C   8,C   5,C   6)    -43.1749         0.013991   
    128. D(O  10,C   8,C   5,C   4)    132.8388         0.013991   
    129. D(O  11,O   9,C   8,O  10)    157.9229         0.024498   
    130. D(O  11,O   9,C   8,C   5)    -22.8806         0.024498   
    131. D(C  12,O  11,O   9,C   8)    121.0745         0.015467   
    132. D(O  14,C  12,O  11,O   9)      1.4962         0.026770   
    133. D(C  13,C  12,O  11,O   9)   -177.2626         0.026770   
    134. D(C  19,C  13,C  12,O  14)   -167.0428         0.014262   
    135. D(C  19,C  13,C  12,O  11)     11.6757         0.014262   
    136. D(C  15,C  13,C  12,O  14)     10.5550         0.014262   
    137. D(C  15,C  13,C  12,O  11)   -170.7265         0.014262   
    138. D(H  29,C  15,C  13,C  19)    179.5255         0.025966   
    139. D(H  29,C  15,C  13,C  12)      1.8326         0.025966   
    140. D(C  16,C  15,C  13,C  19)     -0.4006         0.025966   
    141. D(C  16,C  15,C  13,C  12)   -178.0935         0.025966   
    142. D(H  30,C  16,C  15,H  29)      0.4119         0.030169   
    143. D(H  30,C  16,C  15,C  13)   -179.6635         0.030169   
    144. D(C  17,C  16,C  15,H  29)   -179.5362         0.030169   
    145. D(C  17,C  16,C  15,C  13)      0.3884         0.030169   
    146. D(S  20,C  17,C  16,H  30)     -0.2280         0.024966   
    147. D(S  20,C  17,C  16,C  15)    179.7203         0.024966   
    148. D(C  18,C  17,C  16,H  30)    179.9814         0.024966   
    149. D(C  18,C  17,C  16,C  15)     -0.0703         0.024966   
    150. D(H  31,C  18,C  17,S  20)     -0.2266         0.026180   
    151. D(H  31,C  18,C  17,C  16)    179.5460         0.026180   
    152. D(C  19,C  18,C  17,S  20)    179.9944         0.026180   
    153. D(C  19,C  18,C  17,C  16)     -0.2330         0.026180   
    154. D(C  13,C  19,C  18,C  17)      0.2195         0.028499   
    155. D(H  32,C  19,C  13,C  15)   -179.0463         0.026742   
    156. D(H  32,C  19,C  13,C  12)     -1.4873         0.026742   
    157. D(C  18,C  19,C  13,C  15)      0.0962         0.026742   
    158. D(C  18,C  19,C  13,C  12)    177.6553         0.026742   
    159. D(H  32,C  19,C  18,H  31)     -0.4157         0.028499   
    160. D(H  32,C  19,C  18,C  17)    179.3672         0.028499   
    161. D(C  13,C  19,C  18,H  31)   -179.5634         0.028499   
    162. D(C  21,S  20,C  17,C  18)     -1.6462         0.004589   
    163. D(C  21,S  20,C  17,C  16)    178.5756         0.004589   
    164. D(H  35,C  21,S  20,C  17)    -61.2749         0.003898   
    165. D(H  34,C  21,S  20,C  17)     62.7331         0.003898   
    166. D(H  33,C  21,S  20,C  17)   -179.2586         0.003898   
    -----------------------------------------------------------------

Number of atoms                         .... 36
Number of degrees of freedom            .... 166

         *************************************************************
         *                GEOMETRY OPTIMIZATION CYCLE   1            *
         *************************************************************
---------------------------------
CARTESIAN COORDINATES (ANGSTROEM)
---------------------------------
  C     -0.074257    6.450078    3.546369
  S      1.489796    6.080482    2.755983
  C      1.149367    4.636622    1.833692
  C     -0.091366    4.003053    1.793384
  C     -0.258269    2.842695    1.059363
  C      0.800510    2.302714    0.339239
  C      2.028757    2.960408    0.342019
  C      2.207648    4.103303    1.091211
  C      0.662544    1.099418   -0.506902
  O      0.000000    0.000000    0.000000
  O      1.067139    0.987171   -1.623577
  O      0.000000    0.000000    1.415273
  C     -1.273888    0.000000    1.915906
  C     -1.222115    0.066428    3.388315
  O     -2.257429   -0.025858    1.238757
  C     -2.415439   -0.122896    4.085953
  C     -2.441959   -0.034377    5.458877
  C     -1.272751    0.254962    6.172985
  C     -0.081778    0.450607    5.475180
  C     -0.058904    0.354404    4.095446
  S     -1.426667    0.349861    7.907885
  C      0.243161    0.684954    8.461945
  H      0.104163    7.346077    4.140874
  H     -0.388823    5.643873    4.210020
  H     -0.853239    6.664434    2.813856
  H     -0.937000    4.405134    2.334216
  H     -1.235074    2.374970    1.027490
  H      2.845447    2.558826   -0.245767
  H      3.172953    4.596710    1.102483
  H     -3.317691   -0.339000    3.527072
  H     -3.371885   -0.188084    5.994647
  H      0.834798    0.682521    5.999887
  H      0.870469    0.518836    3.566025
  H      0.184541    0.737294    9.549091
  H      0.608645    1.640295    8.083742
  H      0.925075   -0.119495    8.184590

----------------------------
CARTESIAN COORDINATES (A.U.)
----------------------------
  NO LB      ZA    FRAG     MASS         X           Y           Z
   0 C     6.0000    0    12.011   -0.140326   12.188880    6.701666
   1 S    16.0000    0    32.060    2.815306   11.490446    5.208052
   2 C     6.0000    0    12.011    2.171988    8.761946    3.465176
   3 C     6.0000    0    12.011   -0.172656    7.564674    3.389004
   4 C     6.0000    0    12.011   -0.488058    5.371916    2.001906
   5 C     6.0000    0    12.011    1.512744    4.351499    0.641068
   6 C     6.0000    0    12.011    3.833795    5.594361    0.646322
   7 C     6.0000    0    12.011    4.171850    7.754120    2.062089
   8 C     6.0000    0    12.011    1.252027    2.077599   -0.957905
   9 O     8.0000    0    15.999    0.000000    0.000000    0.000000
  10 O     8.0000    0    15.999    2.016600    1.865483   -3.068117
  11 O     8.0000    0    15.999    0.000000    0.000000    2.674478
  12 C     6.0000    0    12.011   -2.407299    0.000000    3.620538
  13 C     6.0000    0    12.011   -2.309462    0.125530    6.402987
  14 O     8.0000    0    15.999   -4.265923   -0.048864    2.340911
  15 C     6.0000    0    12.011   -4.564519   -0.232240    7.721331
  16 C     6.0000    0    12.011   -4.614634   -0.064963   10.315783
  17 C     6.0000    0    12.011   -2.405150    0.481809   11.665251
  18 C     6.0000    0    12.011   -0.154538    0.851523   10.346591
  19 C     6.0000    0    12.011   -0.111313    0.669726    7.739272
  20 S    16.0000    0    32.060   -2.696011    0.661142   14.943738
  21 C     6.0000    0    12.011    0.459507    1.294376   15.990759
  22 H     1.0000    0     1.008    0.196840   13.882073    7.825117
  23 H     1.0000    0     1.008   -0.734769   10.665374    7.955785
  24 H     1.0000    0     1.008   -1.612387   12.593954    5.317418
  25 H     1.0000    0     1.008   -1.770673    8.324496    4.411029
  26 H     1.0000    0     1.008   -2.333952    4.488043    1.941675
  27 H     1.0000    0     1.008    5.377115    4.835480   -0.464432
  28 H     1.0000    0     1.008    5.996013    8.686522    2.083392
  29 H     1.0000    0     1.008   -6.269527   -0.640618    6.665201
  30 H     1.0000    0     1.008   -6.371940   -0.355427   11.328241
  31 H     1.0000    0     1.008    1.577539    1.289777   11.338144
  32 H     1.0000    0     1.008    1.644949    0.980458    6.738811
  33 H     1.0000    0     1.008    0.348732    1.393284   18.045166
  34 H     1.0000    0     1.008    1.150173    3.099708   15.276059
  35 H     1.0000    0     1.008    1.748139   -0.225813   15.466634

--------------------------------
INTERNAL COORDINATES (ANGSTROEM)
--------------------------------
 C      0   0   0     0.000000000000     0.00000000     0.00000000
 S      1   0   0     1.790969818017     0.00000000     0.00000000
 C      2   1   0     1.746780929995   103.49703222     0.00000000
 C      3   2   1     1.393718459520   124.36918170     0.07682297
 C      4   3   2     1.383138688329   120.27439762   181.60997218
 C      5   4   3     1.389666017657   120.60050203   359.14829865
 C      6   5   4     1.393255545064   119.15672375   358.66151732
 C      7   6   5     1.378223229504   120.46180539     2.53383799
 C      6   5   4     1.477466986255   122.82593719   182.69580816
 O      9   6   5     1.380084896203   118.89987975   313.72924568
 O      9   6   5     1.193004913083   125.52191253   132.83876530
 O     10   9   6     1.415272844987   111.54903739   337.11941713
 C     12  10   9     1.368730765383   111.45466078   121.07450275
 C     13  12  10     1.474815033092   109.42032141   182.73741157
 O     13  12  10     1.194384598005   123.98959865     1.49620750
 C     14  13  12     1.395193933712   117.58575536   189.27346256
 C     16  14  13     1.376030833609   120.44129595   181.90648253
 C     17  16  14     1.400255566970   120.39992501     0.38844050
 C     18  17  16     1.394139305089   119.14686446   359.92970699
 C     19  18  17     1.383272755320   120.23932774   359.76697987
 S     18  17  16     1.744297983907   116.41043178   179.72028820
 C     21  18  17     1.790976006328   103.62720090   178.57561880
 H      1   2   3     1.089992880213   105.50910599   179.52342869
 H      1   2   3     1.090573504139   111.58592171    61.47211732
 H      1   2   3     1.090566449636   111.58785041   297.48242808
 H      4   3   2     1.081326236832   120.84329981     1.45240478
 H      5   4   3     1.083480942612   119.11451180   181.02803207
 H      7   6   5     1.083394137146   119.24119758   182.05045369
 H      8   7   6     1.084154903776   119.90872766   178.77361985
 H     16  14  13     1.083100074365   118.78711222     1.83264212
 H     17  16  14     1.084176184997   120.03093279   180.33653865
 H     19  18  17     1.081301368500   120.75351253   179.54600540
 H     20  19  18     1.082155372130   119.44648422   179.36717552
 H     22  21  18     1.089982165651   105.50954915   180.74135630
 H     22  21  18     1.090546637769   111.65925285    62.73308778
 H     22  21  18     1.090445981958   111.48990618   298.72507539

---------------------------
INTERNAL COORDINATES (A.U.)
---------------------------
 C      0   0   0     0.000000000000     0.00000000     0.00000000
 S      1   0   0     3.384442470171     0.00000000     0.00000000
 C      2   1   0     3.300937573646   103.49703222     0.00000000
 C      3   2   1     2.633746196283   124.36918170     0.07682297
 C      4   3   2     2.613753326172   120.27439762   181.60997218
 C      5   4   3     2.626088190988   120.60050203   359.14829865
 C      6   5   4     2.632871414738   119.15672375   358.66151732
 C      7   6   5     2.604464455171   120.46180539     2.53383799
 C      6   5   4     2.792007975932   122.82593719   182.69580816
 O      9   6   5     2.607982495384   118.89987975   313.72924568
 O      9   6   5     2.254452562149   125.52191253   132.83876530
 O     10   9   6     2.674478081801   111.54903739   337.11941713
 C     12  10   9     2.586526297646   111.45466078   121.07450275
 C     13  12  10     2.786996510733   109.42032141   182.73741157
 O     13  12  10     2.257059788803   123.98959865     1.49620750
 C     14  13  12     2.636534438423   117.58575536   189.27346256
 C     16  14  13     2.600321427352   120.44129595   181.90648253
 C     17  16  14     2.646099539072   120.39992501     0.38844050
 C     18  17  16     2.634541479154   119.14686446   359.92970699
 C     19  18  17     2.614006676069   120.23932774   359.76697987
 S     18  17  16     3.296245485535   116.41043178   179.72028820
 C     21  18  17     3.384454164384   103.62720090   178.57561880
 H      1   2   3     2.059788031526   105.50910599   179.52342869
 H      1   2   3     2.060885251733   111.58592171    61.47211732
 H      1   2   3     2.060871920655   111.58785041   297.48242808
 H      4   3   2     2.043410449036   120.84329981     1.45240478
 H      5   4   3     2.047482252859   119.11451180   181.02803207
 H      7   6   5     2.047318214302   119.24119758   182.05045369
 H      8   7   6     2.048755854885   119.90872766   178.77361985
 H     16  14  13     2.046762516180   118.78711222     1.83264212
 H     17  16  14     2.048796070563   120.03093279   180.33653865
 H     19  18  17     2.043363454698   120.75351253   179.54600540
 H     20  19  18     2.044977287678   119.44648422   179.36717552
 H     22  21  18     2.059767783938   105.50954915   180.74135630
 H     22  21  18     2.060834481653   111.65925285    62.73308778
 H     22  21  18     2.060644269736   111.48990618   298.72507539

---------------------
BASIS SET INFORMATION
---------------------
There are 4 groups of distinct atoms

 Group   1 Type C   : 11s6p2d1f contracted to 5s3p2d1f pattern {62111/411/11/1}
 Group   2 Type S   : 14s9p3d1f contracted to 5s5p2d1f pattern {73211/51111/21/1}
 Group   3 Type O   : 11s6p2d1f contracted to 5s3p2d1f pattern {62111/411/11/1}
 Group   4 Type H   : 5s1p contracted to 3s1p pattern {311/1}

Atom   0C    basis set group =>   1
Atom   1S    basis set group =>   2
Atom   2C    basis set group =>   1
Atom   3C    basis set group =>   1
Atom   4C    basis set group =>   1
Atom   5C    basis set group =>   1
Atom   6C    basis set group =>   1
Atom   7C    basis set group =>   1
Atom   8C    basis set group =>   1
Atom   9O    basis set group =>   3
Atom  10O    basis set group =>   3
Atom  11O    basis set group =>   3
Atom  12C    basis set group =>   1
Atom  13C    basis set group =>   1
Atom  14O    basis set group =>   3
Atom  15C    basis set group =>   1
Atom  16C    basis set group =>   1
Atom  17C    basis set group =>   1
Atom  18C    basis set group =>   1
Atom  19C    basis set group =>   1
Atom  20S    basis set group =>   2
Atom  21C    basis set group =>   1
Atom  22H    basis set group =>   4
Atom  23H    basis set group =>   4
Atom  24H    basis set group =>   4
Atom  25H    basis set group =>   4
Atom  26H    basis set group =>   4
Atom  27H    basis set group =>   4
Atom  28H    basis set group =>   4
Atom  29H    basis set group =>   4
Atom  30H    basis set group =>   4
Atom  31H    basis set group =>   4
Atom  32H    basis set group =>   4
Atom  33H    basis set group =>   4
Atom  34H    basis set group =>   4
Atom  35H    basis set group =>   4
---------------------------------
AUXILIARY/J BASIS SET INFORMATION
---------------------------------
There are 4 groups of distinct atoms

 Group   1 Type C   : 12s5p4d2f1g contracted to 6s4p3d1f1g pattern {711111/2111/211/2/1}
 Group   2 Type S   : 14s5p5d2f1g contracted to 8s4p3d1f1g pattern {71111111/2111/311/2/1}
 Group   3 Type O   : 12s5p4d2f1g contracted to 6s4p3d1f1g pattern {711111/2111/211/2/1}
 Group   4 Type H   : 5s2p1d contracted to 3s1p1d pattern {311/2/1}

Atom   0C    basis set group =>   1
Atom   1S    basis set group =>   2
Atom   2C    basis set group =>   1
Atom   3C    basis set group =>   1
Atom   4C    basis set group =>   1
Atom   5C    basis set group =>   1
Atom   6C    basis set group =>   1
Atom   7C    basis set group =>   1
Atom   8C    basis set group =>   1
Atom   9O    basis set group =>   3
Atom  10O    basis set group =>   3
Atom  11O    basis set group =>   3
Atom  12C    basis set group =>   1
Atom  13C    basis set group =>   1
Atom  14O    basis set group =>   3
Atom  15C    basis set group =>   1
Atom  16C    basis set group =>   1
Atom  17C    basis set group =>   1
Atom  18C    basis set group =>   1
Atom  19C    basis set group =>   1
Atom  20S    basis set group =>   2
Atom  21C    basis set group =>   1
Atom  22H    basis set group =>   4
Atom  23H    basis set group =>   4
Atom  24H    basis set group =>   4
Atom  25H    basis set group =>   4
Atom  26H    basis set group =>   4
Atom  27H    basis set group =>   4
Atom  28H    basis set group =>   4
Atom  29H    basis set group =>   4
Atom  30H    basis set group =>   4
Atom  31H    basis set group =>   4
Atom  32H    basis set group =>   4
Atom  33H    basis set group =>   4
Atom  34H    basis set group =>   4
Atom  35H    basis set group =>   4


           ************************************************************
           *        Program running with 8 parallel MPI-processes     *
           *              working on a common directory               *
           ************************************************************
------------------------------------------------------------------------------
                           ORCA GTO INTEGRAL CALCULATION
                           -- RI-GTO INTEGRALS CHOSEN --
------------------------------------------------------------------------------
------------------------------------------------------------------------------
                   ___                                                        
                  /   \      - P O W E R E D   B Y -                         
                 /     \                                                     
                 |  |  |   _    _      __       _____    __    __             
                 |  |  |  | |  | |    /  \     |  _  \  |  |  /  |          
                  \  \/   | |  | |   /    \    | | | |  |  | /  /          
                 / \  \   | |__| |  /  /\  \   | |_| |  |  |/  /          
                |  |  |   |  __  | /  /__\  \  |    /   |      \           
                |  |  |   | |  | | |   __   |  |    \   |  |\   \          
                \     /   | |  | | |  |  |  |  | |\  \  |  | \   \       
                 \___/    |_|  |_| |__|  |__|  |_| \__\ |__|  \__/        
                                                                              
                      - O R C A' S   B I G   F R I E N D -                    
                                      &                                       
                       - I N T E G R A L  F E E D E R -                       
                                                                              
 v1 FN, 2020, v2 2021                                                         
------------------------------------------------------------------------------


Reading SHARK input file /burg/berkelbach/users/eav2136/projects/peroxide_dissociation/04_solvated_radical/nmf_peroxide/nmf_peroxide_opt.SHARKINP.tmp ... ok
----------------------
SHARK INTEGRAL PACKAGE
----------------------

Number of atoms                             ...     36
Number of basis functions                   ...    778
Number of shells                            ...    302
Maximum angular momentum                    ...      3
Integral batch strategy                     ... SHARK/LIBINT Hybrid
RI-J (if used) integral strategy            ... SPLIT-RIJ (Revised 2003 algorithm where possible)
Printlevel                                  ...      1
Contraction scheme used                     ... SEGMENTED contraction
Coulomb Range Separation                    ... NOT USED
Exchange Range Separation                   ... NOT USED
Finite Nucleus Model                        ... NOT USED
Auxiliary Coulomb fitting basis             ... AVAILABLE
   # of basis functions in Aux-J            ...   1236
   # of shells in Aux-J                     ...    404
   Maximum angular momentum in Aux-J        ...      4
Auxiliary J/K fitting basis                 ... NOT available
Auxiliary Correlation fitting basis         ... NOT available
Auxiliary 'external' fitting basis          ... NOT available
Integral threshold                          ...     2.500000e-11
Primitive cut-off                           ...     2.500000e-12
Primitive pair pre-selection threshold      ...     2.500000e-12

Calculating pre-screening integrals         ... done (  0.1 sec) Dimension = 302
Organizing shell pair data                  ... done (  0.5 sec)
Shell pair information
Total number of shell pairs                 ...     45753
Shell pairs after pre-screening             ...     30707
Total number of primitive shell pairs       ...    145545
Primitive shell pairs kept                  ...     63502
          la=0 lb=0:   7523 shell pairs
          la=1 lb=0:   8937 shell pairs
          la=1 lb=1:   2674 shell pairs
          la=2 lb=0:   4331 shell pairs
          la=2 lb=1:   2602 shell pairs
          la=2 lb=2:    662 shell pairs
          la=3 lb=0:   2019 shell pairs
          la=3 lb=1:   1229 shell pairs
          la=3 lb=2:    589 shell pairs
          la=3 lb=3:    141 shell pairs

Calculating one electron integrals          ... done (  1.7 sec)
Calculating RI/J V-Matrix + Cholesky decomp.... done (  1.1 sec)
Calculating Nuclear repulsion               ... done (  0.0 sec) ENN=   1970.142246923818 Eh

SHARK setup successfully completed in   7.6 seconds

Maximum memory used throughout the entire GTOINT-calculation: 49.0 MB


           ************************************************************
           *        Program running with 8 parallel MPI-processes     *
           *              working on a common directory               *
           ************************************************************
-------------------------------------------------------------------------------
                                 ORCA SCF
-------------------------------------------------------------------------------

------------
SCF SETTINGS
------------
Hamiltonian:
 Density Functional     Method          .... DFT(GTOs)
 Exchange Functional    Exchange        .... PBE
   PBE kappa parameter   XKappa         ....  0.804000
   PBE mue parameter    XMuePBE         ....  0.219520
 Correlation Functional Correlation     .... PBE
   PBE beta parameter  CBetaPBE         ....  0.066725
 LDA part of GGA corr.  LDAOpt          .... PW91-LDA
 Gradients option       PostSCFGGA      .... off
 Hybrid DFT is turned on
   Fraction HF Exchange ScalHFX         ....  0.250000
   Scaling of DF-GGA-X  ScalDFX         ....  0.750000
   Scaling of DF-GGA-C  ScalDFC         ....  1.000000
   Scaling of DF-LDA-C  ScalLDAC        ....  1.000000
   Perturbative correction              ....  0.000000
   Density functional embedding theory  .... OFF
   NL short-range parameter             ....  6.900000
 RI-approximation to the Coulomb term is turned on
   Number of AuxJ basis functions       .... 1236
   RIJ-COSX (HFX calculated with COS-X)).... on


General Settings:
 Integral files         IntName         .... /burg/berkelbach/users/eav2136/projects/peroxide_dissociation/04_solvated_radical/nmf_peroxide/nmf_peroxide_opt
 Hartree-Fock type      HFTyp           .... UHF
 Total Charge           Charge          ....    0
 Multiplicity           Mult            ....    1
 Number of Electrons    NEL             ....  174
 Basis Dimension        Dim             ....  778
 Nuclear Repulsion      ENuc            ....   1970.1422469238 Eh

Convergence Acceleration:
 DIIS                   CNVDIIS         .... on
   Start iteration      DIISMaxIt       ....    12
   Startup error        DIISStart       ....  0.200000
   # of expansion vecs  DIISMaxEq       ....     5
   Bias factor          DIISBfac        ....   1.050
   Max. coefficient     DIISMaxC        ....  10.000
 Trust-Rad. Augm. Hess. CNVTRAH         .... auto
   Auto Start mean grad. ratio tolernc. ....  1.125000
   Auto Start start iteration           ....    20
   Auto Start num. interpolation iter.  ....    10
   Max. Number of Micro iterations      ....    16
   Max. Number of Macro iterations      .... Maxiter - #DIIS iter
   Number of Davidson start vectors     ....     2
   Converg. threshold I  (grad. norm)   ....   1.000e-05
   Converg. threshold II (energy diff.) ....   1.000e-08
   Grad. Scal. Fac. for Micro threshold ....   0.100
   Minimum threshold for Micro iter.    ....   0.010
   NR start threshold (gradient norm)   ....   0.001
   Initial trust radius                 ....   0.400
   Minimum AH scaling param. (alpha)    ....   1.000
   Maximum AH scaling param. (alpha)    .... 1000.000
   Orbital update algorithm             .... Taylor
   White noise on init. David. guess    .... on
   Maximum white noise                  ....   0.010
   Quad. conv. algorithm                .... NR
 SOSCF                  CNVSOSCF        .... off
 Level Shifting         CNVShift        .... on
   Level shift para.    LevelShift      ....    0.2500
   Turn off err/grad.   ShiftErr        ....    0.0010
 Zerner damping         CNVZerner       .... off
 Static damping         CNVDamp         .... on
   Fraction old density DampFac         ....    0.7000
   Max. Damping (<1)    DampMax         ....    0.9800
   Min. Damping (>=0)   DampMin         ....    0.0000
   Turn off err/grad.   DampErr         ....    0.1000
 Fernandez-Rico         CNVRico         .... off

SCF Procedure:
 Maximum # iterations   MaxIter         ....   125
 SCF integral mode      SCFMode         .... Direct
   Integral package                     .... SHARK and LIBINT hybrid scheme
 Reset frequency        DirectResetFreq ....    20
 Integral Threshold     Thresh          ....  2.500e-11 Eh
 Primitive CutOff       TCut            ....  2.500e-12 Eh

Convergence Tolerance:
 Convergence Check Mode ConvCheckMode   .... Total+1el-Energy
 Convergence forced     ConvForced      .... 0
 Energy Change          TolE            ....  1.000e-08 Eh
 1-El. energy change                    ....  1.000e-05 Eh
 DIIS Error             TolErr          ....  5.000e-07


Diagonalization of the overlap matrix:
Smallest eigenvalue                        ... 6.410e-06
Time for diagonalization                   ...    0.100 sec
Threshold for overlap eigenvalues          ... 1.000e-08
Number of eigenvalues below threshold      ... 0
Time for construction of square roots      ...    0.267 sec
Total time needed                          ...    0.370 sec

Time for model grid setup =    1.340 sec

------------------------------
INITIAL GUESS: MODEL POTENTIAL
------------------------------
Loading Hartree-Fock densities                     ... done
Calculating cut-offs                               ... done
Initializing the effective Hamiltonian             ... done
Setting up the integral package (SHARK)            ... done
Starting the Coulomb interaction                   ... done (   1.9 sec)
Reading the grid                                   ... done
Mapping shells                                     ... done
Starting the XC term evaluation                    ... done (   0.5 sec)
  promolecular density results
     # of electrons  =    174.001529421
     EX              =   -168.410428734
     EC              =     -6.029879073
     EX+EC           =   -174.440307808
Transforming the Hamiltonian                       ... done (   0.1 sec)
Diagonalizing the Hamiltonian                      ... done (   0.1 sec)
Back transforming the eigenvectors                 ... done (   0.0 sec)
Now organizing SCF variables                       ... done
                      ------------------
                      INITIAL GUESS DONE (   4.0 sec)
                      ------------------
-------------------
DFT GRID GENERATION
-------------------

General Integration Accuracy     IntAcc      ... 4.388
Radial Grid Type                 RadialGrid  ... OptM3 with GC (2021)
Angular Grid (max. ang.)         AngularGrid ... 4 (Lebedev-302)
Angular grid pruning method      GridPruning ... 4 (adaptive)
Weight generation scheme         WeightScheme... Becke
Basis function cutoff            BFCut       ... 1.0000e-11
Integration weight cutoff        WCut        ... 1.0000e-14
Angular grids for H and He will be reduced by one unit
Partially contracted basis set               ... off
Rotationally invariant grid construction     ... off

Total number of grid points                  ...   179155
Total number of batches                      ...     2817
Average number of points per batch           ...       63
Average number of grid points per atom       ...     4977
Time for grid setup =    1.213 sec

--------------------
COSX GRID GENERATION
--------------------

GRIDX 1
-------
General Integration Accuracy     IntAcc      ... 3.816
Radial Grid Type                 RadialGrid  ... OptM3 with GC (2021)
Angular Grid (max. ang.)         AngularGrid ... 1 (Lebedev-50)
Angular grid pruning method      GridPruning ... 4 (adaptive)
Weight generation scheme         WeightScheme... Becke
Basis function cutoff            BFCut       ... 1.0000e-11
Integration weight cutoff        WCut        ... 1.0000e-14
Angular grids for H and He will be reduced by one unit
Partially contracted basis set               ... on
Rotationally invariant grid construction     ... off

Total number of grid points                  ...    22611
Total number of batches                      ...      371
Average number of points per batch           ...       60
Average number of grid points per atom       ...      628
UseSFitting                                  ... on

GRIDX 2
-------
General Integration Accuracy     IntAcc      ... 4.020
Radial Grid Type                 RadialGrid  ... OptM3 with GC (2021)
Angular Grid (max. ang.)         AngularGrid ... 2 (Lebedev-110)
Angular grid pruning method      GridPruning ... 4 (adaptive)
Weight generation scheme         WeightScheme... Becke
Basis function cutoff            BFCut       ... 1.0000e-11
Integration weight cutoff        WCut        ... 1.0000e-14
Angular grids for H and He will be reduced by one unit
Partially contracted basis set               ... on
Rotationally invariant grid construction     ... off

Total number of grid points                  ...    49564
Total number of batches                      ...      788
Average number of points per batch           ...       62
Average number of grid points per atom       ...     1377
UseSFitting                                  ... on

GRIDX 3
-------
General Integration Accuracy     IntAcc      ... 4.338
Radial Grid Type                 RadialGrid  ... OptM3 with GC (2021)
Angular Grid (max. ang.)         AngularGrid ... 3 (Lebedev-194)
Angular grid pruning method      GridPruning ... 4 (adaptive)
Weight generation scheme         WeightScheme... Becke
Basis function cutoff            BFCut       ... 1.0000e-11
Integration weight cutoff        WCut        ... 1.0000e-14
Angular grids for H and He will be reduced by one unit
Partially contracted basis set               ... on
Rotationally invariant grid construction     ... off

Total number of grid points                  ...   109616
Total number of batches                      ...     1732
Average number of points per batch           ...       63
Average number of grid points per atom       ...     3045
UseSFitting                                  ... on

Time for X-Grid setup             =    3.326 sec


--------------------
CPCM SOLVATION MODEL
--------------------
CPCM parameters:
  Epsilon                                         ...     181.5600
  Refrac                                          ...       1.4319
  Rsolv                                           ...       1.3000
  Surface type                                    ... GAUSSIAN VDW
  Epsilon function type                           ...         CPCM
Solvent:                                     ... N-METHYLFORMAMIDE
SMD-CDS solvent descriptors:
  Soln                                       ...    1.4319
  Soln25                                     ...    1.4310
  Sola                                       ...    0.4000
  Solb                                       ...    0.5500
  Solg                                       ...   55.4400
  Solc                                       ...    0.0000
  Solh                                       ...    0.0000
Radii:
 Radius for C  used is    3.4960 Bohr (=   1.8500 Ang.)
 Radius for S  used is    4.7054 Bohr (=   2.4900 Ang.)
 Radius for O  used is    2.9744 Bohr (=   1.5740 Ang.)
 Radius for H  used is    2.2677 Bohr (=   1.2000 Ang.)
Calculating surface                               ...        done! (  0.0s)
GEPOL surface points                              ...         2065
GEPOL Volume                                      ...    2336.5492
GEPOL Surface-area                                ...    1275.8624
Calculating surface distance matrix               ...        done! (  0.0s)
Performing Cholesky decomposition & store         ...        done! (  0.2s)
Overall time for CPCM initialization              ...                 0.2s
--------------
SCF ITERATIONS
--------------
ITER       Energy         Delta-E        Max-DP      RMS-DP      [F,P]     Damp
               ***  Starting incremental Fock matrix formation  ***
  0  -1713.8915372235   0.000000000000 0.02658177  0.00033371  0.1382089 0.7000
  1  -1714.1369887664  -0.245451542843 0.02264466  0.00026717  0.0562600 0.7000
                               ***Turning on DIIS***
  2  -1714.2327447178  -0.095755951478 0.03864081  0.00048336  0.0164313 0.0000
  3  -1714.3870528440  -0.154308126220 0.02252341  0.00020941  0.0251003 0.0000
  4  -1714.4195269334  -0.032474089310 0.00726647  0.00008261  0.0076374 0.0000
  5  -1714.4215331221  -0.002006188747 0.00415899  0.00003527  0.0047300 0.0000
  6  -1714.4217724194  -0.000239297339 0.00149999  0.00001790  0.0005942 0.0000
               *** Restarting incremental Fock matrix formation ***
                                   *** Resetting DIIS ***
  7  -1714.4217460098   0.000026409633 0.00058274  0.00001024  0.0004432 0.0000
  8  -1714.4217440373   0.000001972512 0.00027108  0.00000202  0.0008490 0.0000
  9  -1714.4217484909  -0.000004453615 0.00009355  0.00000082  0.0001715 0.0000
 10  -1714.4217485986  -0.000000107646 0.00006173  0.00000051  0.0000780 0.0000
 11  -1714.4217486251  -0.000000026548 0.00002096  0.00000028  0.0000170 0.0000
 12  -1714.4217486385  -0.000000013350 0.00006167  0.00000054  0.0000065 0.0000
 13  -1714.4217486389  -0.000000000397 0.00004402  0.00000045  0.0000020 0.0000
                 **** Energy Check signals convergence ****

               *****************************************************
               *                     SUCCESS                       *
               *           SCF CONVERGED AFTER  14 CYCLES          *
               *****************************************************

Old exchange energy                            =    -42.735893723 Eh
New exchange energy                            =    -42.735864301 Eh
Exchange energy change after final integration =      0.000029422 Eh
Total energy after final integration           =  -1714.421719215 Eh
Final COS-X integration done in                =    24.771 sec

SMD CDS free energy correction energy :                 3.56927     Kcal/mol
Total Energy after SMD CDS correction =             -1714.416031220 Eh

----------------
TOTAL SCF ENERGY
----------------

Total Energy       :        -1714.41603122 Eh          -46651.63193 eV

Components:
Nuclear Repulsion  :         1970.14224692 Eh           53610.29603 eV
Electronic Energy  :        -3684.55827814 Eh         -100261.92797 eV
One Electron Energy:        -6267.80639220 Eh         -170555.68282 eV
Two Electron Energy:         2583.24811406 Eh           70293.75485 eV
Max COSX asymmetry :            0.00000051 Eh               0.00001 eV
CPCM Dielectric    :           -0.03658016 Eh              -0.99540 eV
SMD CDS (Gcds)     :            0.00568799 Eh               0.15478 eV

Virial components:
Potential Energy   :        -3423.67424022 Eh          -93162.91239 eV
Kinetic Energy     :         1709.25820900 Eh           46511.28045 eV
Virial Ratio       :            2.00301758


DFT components:
N(Alpha)           :       86.999992281463 electrons
N(Beta)            :       86.999992281463 electrons
N(Total)           :      173.999984562927 electrons
E(X)               :     -127.858147085952 Eh       
E(C)               :       -6.030855048093 Eh       
E(XC)              :     -133.889002134045 Eh       
DFET-embed. en.    :        0.000000000000 Eh       
CPCM Solvation Model Properties:
Surface-charge          :           -0.04828519
Charge-correction       :            0.00014867 Eh               0.00405 eV
Free-energy (cav+disp)  :            0.00568799 Eh               0.15478 eV

---------------
SCF CONVERGENCE
---------------

  Last Energy change         ...    1.6692e-09  Tolerance :   1.0000e-08
  Last MAX-Density change    ...    0.0000e+00  Tolerance :   1.0000e-07
  Last RMS-Density change    ...    0.0000e+00  Tolerance :   5.0000e-09
  Last DIIS Error            ...    5.0005e-07  Tolerance :   5.0000e-07

             **** THE GBW FILE WAS UPDATED (/burg/berkelbach/users/eav2136/projects/peroxide_dissociation/04_solvated_radical/nmf_peroxide/nmf_peroxide_opt.gbw) ****
             **** DENSITY /burg/berkelbach/users/eav2136/projects/peroxide_dissociation/04_solvated_radical/nmf_peroxide/nmf_peroxide_opt.scfp WAS UPDATED ****
             **** ENERGY FILE WAS UPDATED (/burg/berkelbach/users/eav2136/projects/peroxide_dissociation/04_solvated_radical/nmf_peroxide/nmf_peroxide_opt.en.tmp) ****
----------------------
UHF SPIN CONTAMINATION
----------------------

Warning: in a DFT calculation there is little theoretical justification to 
         calculate <S**2> as in Hartree-Fock theory. We will do it anyways
         but you should keep in mind that the values have only limited relevance

Expectation value of <S**2>     :    -0.000000
Ideal value S*(S+1) for S=0.0   :     0.000000
Deviation                       :    -0.000000

             **** THE GBW FILE WAS UPDATED (/burg/berkelbach/users/eav2136/projects/peroxide_dissociation/04_solvated_radical/nmf_peroxide/nmf_peroxide_opt.gbw) ****
             **** DENSITY /burg/berkelbach/users/eav2136/projects/peroxide_dissociation/04_solvated_radical/nmf_peroxide/nmf_peroxide_opt.scfp WAS UPDATED ****
----------------
ORBITAL ENERGIES
----------------
                 SPIN UP ORBITALS
  NO   OCC          E(Eh)            E(eV) 
   0   1.0000     -89.034769     -2422.7592 
   1   1.0000     -89.033033     -2422.7120 
   2   1.0000     -19.327322      -525.9232 
   3   1.0000     -19.326846      -525.9102 
   4   1.0000     -19.224416      -523.1230 
   5   1.0000     -19.218343      -522.9577 
   6   1.0000     -10.379518      -282.4411 
   7   1.0000     -10.374695      -282.3098 
   8   1.0000     -10.276853      -279.6474 
   9   1.0000     -10.274642      -279.5872 
  10   1.0000     -10.252002      -278.9712 
  11   1.0000     -10.250750      -278.9371 
  12   1.0000     -10.244826      -278.7759 
  13   1.0000     -10.244763      -278.7742 
  14   1.0000     -10.243037      -278.7272 
  15   1.0000     -10.242705      -278.7182 
  16   1.0000     -10.242327      -278.7079 
  17   1.0000     -10.241704      -278.6909 
  18   1.0000     -10.237324      -278.5718 
  19   1.0000     -10.236639      -278.5531 
  20   1.0000     -10.236321      -278.5444 
  21   1.0000     -10.236137      -278.5395 
  22   1.0000      -8.013477      -218.0578 
  23   1.0000      -8.011751      -218.0108 
  24   1.0000      -5.949961      -161.9067 
  25   1.0000      -5.948263      -161.8605 
  26   1.0000      -5.946276      -161.8064 
  27   1.0000      -5.944598      -161.7607 
  28   1.0000      -5.942525      -161.7043 
  29   1.0000      -5.940730      -161.6555 
  30   1.0000      -1.242248       -33.8033 
  31   1.0000      -1.133634       -30.8477 
  32   1.0000      -1.101491       -29.9731 
  33   1.0000      -1.001286       -27.2464 
  34   1.0000      -0.911629       -24.8067 
  35   1.0000      -0.910629       -24.7795 
  36   1.0000      -0.844556       -22.9815 
  37   1.0000      -0.842809       -22.9340 
  38   1.0000      -0.789808       -21.4918 
  39   1.0000      -0.787877       -21.4392 
  40   1.0000      -0.782289       -21.2872 
  41   1.0000      -0.779826       -21.2202 
  42   1.0000      -0.714098       -19.4316 
  43   1.0000      -0.696765       -18.9599 
  44   1.0000      -0.666666       -18.1409 
  45   1.0000      -0.646934       -17.6040 
  46   1.0000      -0.645671       -17.5696 
  47   1.0000      -0.629877       -17.1398 
  48   1.0000      -0.607942       -16.5429 
  49   1.0000      -0.594991       -16.1905 
  50   1.0000      -0.576038       -15.6748 
  51   1.0000      -0.567439       -15.4408 
  52   1.0000      -0.535046       -14.5593 
  53   1.0000      -0.517861       -14.0917 
  54   1.0000      -0.503839       -13.7102 
  55   1.0000      -0.499379       -13.5888 
  56   1.0000      -0.488612       -13.2958 
  57   1.0000      -0.486218       -13.2307 
  58   1.0000      -0.481598       -13.1050 
  59   1.0000      -0.468810       -12.7570 
  60   1.0000      -0.465231       -12.6596 
  61   1.0000      -0.456717       -12.4279 
  62   1.0000      -0.450410       -12.2563 
  63   1.0000      -0.445342       -12.1184 
  64   1.0000      -0.444592       -12.0980 
  65   1.0000      -0.443966       -12.0809 
  66   1.0000      -0.437772       -11.9124 
  67   1.0000      -0.420015       -11.4292 
  68   1.0000      -0.416131       -11.3235 
  69   1.0000      -0.406443       -11.0599 
  70   1.0000      -0.404580       -11.0092 
  71   1.0000      -0.389333       -10.5943 
  72   1.0000      -0.385980       -10.5030 
  73   1.0000      -0.378112       -10.2889 
  74   1.0000      -0.368222       -10.0198 
  75   1.0000      -0.367163        -9.9910 
  76   1.0000      -0.345897        -9.4123 
  77   1.0000      -0.340600        -9.2682 
  78   1.0000      -0.339491        -9.2380 
  79   1.0000      -0.330992        -9.0067 
  80   1.0000      -0.324972        -8.8429 
  81   1.0000      -0.316620        -8.6157 
  82   1.0000      -0.311337        -8.4719 
  83   1.0000      -0.285108        -7.7582 
  84   1.0000      -0.282396        -7.6844 
  85   1.0000      -0.233482        -6.3534 
  86   1.0000      -0.231358        -6.2956 
  87   0.0000      -0.063985        -1.7411 
  88   0.0000      -0.051015        -1.3882 
  89   0.0000      -0.020089        -0.5466 
  90   0.0000      -0.018115        -0.4929 
  91   0.0000      -0.006471        -0.1761 
  92   0.0000       0.024998         0.6802 
  93   0.0000       0.033127         0.9014 
  94   0.0000       0.033374         0.9081 
  95   0.0000       0.040854         1.1117 
  96   0.0000       0.056426         1.5354 
  97   0.0000       0.068445         1.8625 
  98   0.0000       0.083128         2.2620 
  99   0.0000       0.085115         2.3161 
 100   0.0000       0.091315         2.4848 
 101   0.0000       0.092306         2.5118 
 102   0.0000       0.096318         2.6209 
 103   0.0000       0.104724         2.8497 
 104   0.0000       0.114371         3.1122 
 105   0.0000       0.118166         3.2155 
 106   0.0000       0.119490         3.2515 
 107   0.0000       0.121527         3.3069 
 108   0.0000       0.125275         3.4089 
 109   0.0000       0.129601         3.5266 
 110   0.0000       0.132343         3.6012 
 111   0.0000       0.138544         3.7700 
 112   0.0000       0.145047         3.9469 
 113   0.0000       0.149059         4.0561 
 114   0.0000       0.151488         4.1222 
 115   0.0000       0.157922         4.2973 
 116   0.0000       0.163965         4.4617 
 117   0.0000       0.169146         4.6027 
 118   0.0000       0.180631         4.9152 
 119   0.0000       0.188423         5.1272 
 120   0.0000       0.198453         5.4002 
 121   0.0000       0.204153         5.5553 
 122   0.0000       0.208951         5.6858 
 123   0.0000       0.211020         5.7422 
 124   0.0000       0.214500         5.8368 
 125   0.0000       0.222197         6.0463 
 126   0.0000       0.226012         6.1501 
 127   0.0000       0.228456         6.2166 
 128   0.0000       0.229420         6.2428 
 129   0.0000       0.231172         6.2905 
 130   0.0000       0.237251         6.4559 
 131   0.0000       0.241124         6.5613 
 132   0.0000       0.245748         6.6871 
 133   0.0000       0.247404         6.7322 
 134   0.0000       0.252752         6.8777 
 135   0.0000       0.256291         6.9740 
 136   0.0000       0.259028         7.0485 
 137   0.0000       0.261637         7.1195 
 138   0.0000       0.262806         7.1513 
 139   0.0000       0.266884         7.2623 
 140   0.0000       0.275300         7.4913 
 141   0.0000       0.284523         7.7423 
 142   0.0000       0.288910         7.8616 
 143   0.0000       0.292268         7.9530 
 144   0.0000       0.296928         8.0798 
 145   0.0000       0.301386         8.2011 
 146   0.0000       0.304926         8.2975 
 147   0.0000       0.315794         8.5932 
 148   0.0000       0.319258         8.6874 
 149   0.0000       0.325932         8.8691 
 150   0.0000       0.327628         8.9152 
 151   0.0000       0.331439         9.0189 
 152   0.0000       0.339038         9.2257 
 153   0.0000       0.343852         9.3567 
 154   0.0000       0.346011         9.4155 
 155   0.0000       0.348957         9.4956 
 156   0.0000       0.352078         9.5805 
 157   0.0000       0.364632         9.9222 
 158   0.0000       0.366858         9.9827 
 159   0.0000       0.373483        10.1630 
 160   0.0000       0.377359        10.2685 
 161   0.0000       0.381185        10.3726 
 162   0.0000       0.384474        10.4621 
 163   0.0000       0.388127        10.5615 
 164   0.0000       0.393071        10.6960 
 165   0.0000       0.397941        10.8285 
 166   0.0000       0.403788        10.9876 
 167   0.0000       0.406793        11.0694 
 168   0.0000       0.408461        11.1148 
 169   0.0000       0.416238        11.3264 
 170   0.0000       0.417939        11.3727 
 171   0.0000       0.420373        11.4389 
 172   0.0000       0.424035        11.5386 
 173   0.0000       0.430386        11.7114 
 174   0.0000       0.437132        11.8950 
 175   0.0000       0.439747        11.9661 
 176   0.0000       0.444563        12.0972 
 177   0.0000       0.450434        12.2569 
 178   0.0000       0.454250        12.3608 
 179   0.0000       0.460940        12.5428 
 180   0.0000       0.463368        12.6089 
 181   0.0000       0.469411        12.7733 
 182   0.0000       0.471725        12.8363 
 183   0.0000       0.477392        12.9905 
 184   0.0000       0.480380        13.0718 
 185   0.0000       0.484067        13.1721 
 186   0.0000       0.490258        13.3406 
 187   0.0000       0.491713        13.3802 
 188   0.0000       0.499206        13.5841 
 189   0.0000       0.500720        13.6253 
 190   0.0000       0.506444        13.7810 
 191   0.0000       0.507339        13.8054 
 192   0.0000       0.512149        13.9363 
 193   0.0000       0.519862        14.1462 
 194   0.0000       0.526223        14.3192 
 195   0.0000       0.531822        14.4716 
 196   0.0000       0.536353        14.5949 
 197   0.0000       0.544351        14.8125 
 198   0.0000       0.545887        14.8543 
 199   0.0000       0.550389        14.9768 
 200   0.0000       0.555763        15.1231 
 201   0.0000       0.559393        15.2218 
 202   0.0000       0.561291        15.2735 
 203   0.0000       0.574395        15.6301 
 204   0.0000       0.579213        15.7612 
 205   0.0000       0.587828        15.9956 
 206   0.0000       0.595122        16.1941 
 207   0.0000       0.598426        16.2840 
 208   0.0000       0.604185        16.4407 
 209   0.0000       0.610531        16.6134 
 210   0.0000       0.626144        17.0382 
 211   0.0000       0.635300        17.2874 
 212   0.0000       0.637246        17.3403 
 213   0.0000       0.647481        17.6188 
 214   0.0000       0.652581        17.7576 
 215   0.0000       0.655951        17.8493 
 216   0.0000       0.664699        18.0874 
 217   0.0000       0.675008        18.3679 
 218   0.0000       0.679777        18.4977 
 219   0.0000       0.684412        18.6238 
 220   0.0000       0.693837        18.8803 
 221   0.0000       0.698918        19.0185 
 222   0.0000       0.700813        19.0701 
 223   0.0000       0.702090        19.1048 
 224   0.0000       0.708182        19.2706 
 225   0.0000       0.717468        19.5233 
 226   0.0000       0.718305        19.5461 
 227   0.0000       0.727434        19.7945 
 228   0.0000       0.731415        19.9028 
 229   0.0000       0.734292        19.9811 
 230   0.0000       0.742839        20.2137 
 231   0.0000       0.751248        20.4425 
 232   0.0000       0.759532        20.6679 
 233   0.0000       0.766440        20.8559 
 234   0.0000       0.771547        20.9949 
 235   0.0000       0.777758        21.1639 
 236   0.0000       0.779732        21.2176 
 237   0.0000       0.782885        21.3034 
 238   0.0000       0.784945        21.3594 
 239   0.0000       0.799100        21.7446 
 240   0.0000       0.802684        21.8421 
 241   0.0000       0.804049        21.8793 
 242   0.0000       0.807892        21.9839 
 243   0.0000       0.816773        22.2255 
 244   0.0000       0.820658        22.3312 
 245   0.0000       0.828226        22.5372 
 246   0.0000       0.838968        22.8295 
 247   0.0000       0.845411        23.0048 
 248   0.0000       0.858852        23.3706 
 249   0.0000       0.863770        23.5044 
 250   0.0000       0.871002        23.7012 
 251   0.0000       0.874914        23.8076 
 252   0.0000       0.877034        23.8653 
 253   0.0000       0.888316        24.1723 
 254   0.0000       0.893992        24.3268 
 255   0.0000       0.900665        24.5084 
 256   0.0000       0.911563        24.8049 
 257   0.0000       0.914841        24.8941 
 258   0.0000       0.920486        25.0477 
 259   0.0000       0.929298        25.2875 
 260   0.0000       0.932403        25.3720 
 261   0.0000       0.945643        25.7323 
 262   0.0000       0.948703        25.8155 
 263   0.0000       0.957434        26.0531 
 264   0.0000       0.966470        26.2990 
 265   0.0000       0.970531        26.4095 
 266   0.0000       0.976315        26.5669 
 267   0.0000       0.981897        26.7188 
 268   0.0000       0.984825        26.7985 
 269   0.0000       1.002075        27.2678 
 270   0.0000       1.006977        27.4012 
 271   0.0000       1.012646        27.5555 
 272   0.0000       1.020206        27.7612 
 273   0.0000       1.028498        27.9869 
 274   0.0000       1.042658        28.3722 
 275   0.0000       1.046887        28.4872 
 276   0.0000       1.052913        28.6512 
 277   0.0000       1.060670        28.8623 
 278   0.0000       1.077927        29.3319 
 279   0.0000       1.078403        29.3448 
 280   0.0000       1.088912        29.6308 
 281   0.0000       1.092742        29.7350 
 282   0.0000       1.102688        30.0057 
 283   0.0000       1.109476        30.1904 
 284   0.0000       1.129816        30.7439 
 285   0.0000       1.134630        30.8749 
 286   0.0000       1.149141        31.2697 
 287   0.0000       1.162778        31.6408 
 288   0.0000       1.173082        31.9212 
 289   0.0000       1.179558        32.0974 
 290   0.0000       1.194833        32.5131 
 291   0.0000       1.210920        32.9508 
 292   0.0000       1.217078        33.1184 
 293   0.0000       1.225990        33.3609 
 294   0.0000       1.230221        33.4760 
 295   0.0000       1.237433        33.6723 
 296   0.0000       1.240814        33.7643 
 297   0.0000       1.244816        33.8732 
 298   0.0000       1.255765        34.1711 
 299   0.0000       1.264677        34.4136 
 300   0.0000       1.278283        34.7838 
 301   0.0000       1.283095        34.9148 
 302   0.0000       1.295547        35.2536 
 303   0.0000       1.298630        35.3375 
 304   0.0000       1.301944        35.4277 
 305   0.0000       1.305416        35.5222 
 306   0.0000       1.319747        35.9121 
 307   0.0000       1.333801        36.2946 
 308   0.0000       1.336743        36.3746 
 309   0.0000       1.348133        36.6846 
 310   0.0000       1.364176        37.1211 
 311   0.0000       1.375800        37.4374 
 312   0.0000       1.389597        37.8128 
 313   0.0000       1.400103        38.0987 
 314   0.0000       1.411606        38.4117 
 315   0.0000       1.425906        38.8009 
 316   0.0000       1.445622        39.3374 
 317   0.0000       1.449521        39.4435 
 318   0.0000       1.455369        39.6026 
 319   0.0000       1.461203        39.7614 
 320   0.0000       1.467563        39.9344 
 321   0.0000       1.479096        40.2482 
 322   0.0000       1.487000        40.4633 
 323   0.0000       1.493846        40.6496 
 324   0.0000       1.497021        40.7360 
 325   0.0000       1.507235        41.0140 
 326   0.0000       1.513808        41.1928 
 327   0.0000       1.518334        41.3160 
 328   0.0000       1.519056        41.3356 
 329   0.0000       1.521740        41.4086 
 330   0.0000       1.528161        41.5834 
 331   0.0000       1.532677        41.7063 
 332   0.0000       1.534810        41.7643 
 333   0.0000       1.537415        41.8352 
 334   0.0000       1.541545        41.9476 
 335   0.0000       1.546004        42.0689 
 336   0.0000       1.555486        42.3269 
 337   0.0000       1.561432        42.4887 
 338   0.0000       1.563564        42.5467 
 339   0.0000       1.565244        42.5925 
 340   0.0000       1.570606        42.7384 
 341   0.0000       1.576916        42.9101 
 342   0.0000       1.582788        43.0698 
 343   0.0000       1.591510        43.3072 
 344   0.0000       1.595022        43.4028 
 345   0.0000       1.599484        43.5242 
 346   0.0000       1.606131        43.7050 
 347   0.0000       1.609514        43.7971 
 348   0.0000       1.615964        43.9726 
 349   0.0000       1.623726        44.1838 
 350   0.0000       1.631123        44.3851 
 351   0.0000       1.634666        44.4815 
 352   0.0000       1.635633        44.5078 
 353   0.0000       1.649890        44.8958 
 354   0.0000       1.659367        45.1537 
 355   0.0000       1.666586        45.3501 
 356   0.0000       1.674283        45.5596 
 357   0.0000       1.679433        45.6997 
 358   0.0000       1.686804        45.9003 
 359   0.0000       1.693412        46.0801 
 360   0.0000       1.696205        46.1561 
 361   0.0000       1.699900        46.2566 
 362   0.0000       1.704448        46.3804 
 363   0.0000       1.709755        46.5248 
 364   0.0000       1.723744        46.9055 
 365   0.0000       1.728423        47.0328 
 366   0.0000       1.733077        47.1594 
 367   0.0000       1.742970        47.4286 
 368   0.0000       1.753107        47.7045 
 369   0.0000       1.757169        47.8150 
 370   0.0000       1.783740        48.5380 
 371   0.0000       1.790301        48.7166 
 372   0.0000       1.801076        49.0098 
 373   0.0000       1.816514        49.4298 
 374   0.0000       1.817517        49.4572 
 375   0.0000       1.823492        49.6197 
 376   0.0000       1.829126        49.7731 
 377   0.0000       1.833077        49.8806 
 378   0.0000       1.837175        49.9921 
 379   0.0000       1.845921        50.2301 
 380   0.0000       1.852094        50.3980 
 381   0.0000       1.852558        50.4107 
 382   0.0000       1.860457        50.6256 
 383   0.0000       1.862835        50.6903 
 384   0.0000       1.870796        50.9069 
 385   0.0000       1.872775        50.9608 
 386   0.0000       1.880332        51.1664 
 387   0.0000       1.883784        51.2604 
 388   0.0000       1.888099        51.3778 
 389   0.0000       1.893516        51.5252 
 390   0.0000       1.906289        51.8728 
 391   0.0000       1.907806        51.9140 
 392   0.0000       1.926829        52.4317 
 393   0.0000       1.937582        52.7243 
 394   0.0000       1.950453        53.0745 
 395   0.0000       1.968499        53.5656 
 396   0.0000       1.972669        53.6790 
 397   0.0000       1.980004        53.8787 
 398   0.0000       1.984089        53.9898 
 399   0.0000       2.004684        54.5502 
 400   0.0000       2.015674        54.8493 
 401   0.0000       2.022947        55.0472 
 402   0.0000       2.033596        55.3370 
 403   0.0000       2.036338        55.4116 
 404   0.0000       2.053666        55.8831 
 405   0.0000       2.063963        56.1633 
 406   0.0000       2.077845        56.5410 
 407   0.0000       2.085873        56.7595 
 408   0.0000       2.091788        56.9204 
 409   0.0000       2.098502        57.1032 
 410   0.0000       2.100975        57.1704 
 411   0.0000       2.102272        57.2057 
 412   0.0000       2.106772        57.3282 
 413   0.0000       2.119298        57.6690 
 414   0.0000       2.123959        57.7959 
 415   0.0000       2.127950        57.9045 
[...]
      px      :     0.000000
      py      :     0.000000
      dz2     :     0.000000  d :     0.000000
      dxz     :     0.000000
      dyz     :     0.000000
      dx2y2   :     0.000000
      dxy     :     0.000000
      f0      :     0.000000  f :     0.000000
      f+1     :     0.000000
      f-1     :     0.000000
      f+2     :     0.000000
      f-2     :     0.000000
      f+3     :     0.000000
      f-3     :     0.000000
  7 C s       :     0.000000  s :     0.000000
      pz      :     0.000000  p :     0.000000
      px      :     0.000000
      py      :     0.000000
      dz2     :     0.000000  d :     0.000000
      dxz     :     0.000000
      dyz     :     0.000000
      dx2y2   :     0.000000
      dxy     :     0.000000
      f0      :     0.000000  f :     0.000000
      f+1     :     0.000000
      f-1     :     0.000000
      f+2     :     0.000000
      f-2     :     0.000000
      f+3     :     0.000000
      f-3     :     0.000000
  8 C s       :     0.000000  s :     0.000000
      pz      :     0.000000  p :     0.000000
      px      :     0.000000
      py      :     0.000000
      dz2     :     0.000000  d :     0.000000
      dxz     :     0.000000
      dyz     :     0.000000
      dx2y2   :     0.000000
      dxy     :     0.000000
      f0      :     0.000000  f :     0.000000
      f+1     :     0.000000
      f-1     :     0.000000
      f+2     :     0.000000
      f-2     :     0.000000
      f+3     :     0.000000
      f-3     :     0.000000
  9 O s       :     0.000000  s :     0.000000
      pz      :     0.000000  p :     0.000000
      px      :     0.000000
      py      :     0.000000
      dz2     :     0.000000  d :     0.000000
      dxz     :     0.000000
      dyz     :     0.000000
      dx2y2   :     0.000000
      dxy     :     0.000000
      f0      :     0.000000  f :     0.000000
      f+1     :     0.000000
      f-1     :     0.000000
      f+2     :     0.000000
      f-2     :     0.000000
      f+3     :     0.000000
      f-3     :     0.000000
 10 O s       :     0.000000  s :     0.000000
      pz      :     0.000000  p :     0.000000
      px      :     0.000000
      py      :     0.000000
      dz2     :     0.000000  d :     0.000000
      dxz     :     0.000000
      dyz     :     0.000000
      dx2y2   :     0.000000
      dxy     :     0.000000
      f0      :     0.000000  f :     0.000000
      f+1     :     0.000000
      f-1     :     0.000000
      f+2     :     0.000000
      f-2     :     0.000000
      f+3     :     0.000000
      f-3     :     0.000000
 11 O s       :     0.000000  s :     0.000000
      pz      :     0.000000  p :     0.000000
      px      :     0.000000
      py      :     0.000000
      dz2     :     0.000000  d :     0.000000
      dxz     :     0.000000
      dyz     :     0.000000
      dx2y2   :     0.000000
      dxy     :     0.000000
      f0      :     0.000000  f :     0.000000
      f+1     :     0.000000
      f-1     :     0.000000
      f+2     :     0.000000
      f-2     :     0.000000
      f+3     :     0.000000
      f-3     :     0.000000
 12 C s       :     0.000000  s :     0.000000
      pz      :     0.000000  p :     0.000000
      px      :     0.000000
      py      :     0.000000
      dz2     :     0.000000  d :     0.000000
      dxz     :     0.000000
      dyz     :     0.000000
      dx2y2   :     0.000000
      dxy     :     0.000000
      f0      :     0.000000  f :     0.000000
      f+1     :     0.000000
      f-1     :     0.000000
      f+2     :     0.000000
      f-2     :     0.000000
      f+3     :     0.000000
      f-3     :     0.000000
 13 C s       :     0.000000  s :     0.000000
      pz      :     0.000000  p :     0.000000
      px      :     0.000000
      py      :     0.000000
      dz2     :     0.000000  d :     0.000000
      dxz     :     0.000000
      dyz     :     0.000000
      dx2y2   :     0.000000
      dxy     :     0.000000
      f0      :     0.000000  f :     0.000000
      f+1     :     0.000000
      f-1     :     0.000000
      f+2     :     0.000000
      f-2     :     0.000000
      f+3     :     0.000000
      f-3     :     0.000000
 14 O s       :     0.000000  s :     0.000000
      pz      :     0.000000  p :     0.000000
      px      :     0.000000
      py      :     0.000000
      dz2     :     0.000000  d :     0.000000
      dxz     :     0.000000
      dyz     :     0.000000
      dx2y2   :     0.000000
      dxy     :     0.000000
      f0      :     0.000000  f :     0.000000
      f+1     :     0.000000
      f-1     :     0.000000
      f+2     :     0.000000
      f-2     :     0.000000
      f+3     :     0.000000
      f-3     :     0.000000
 15 C s       :     0.000000  s :     0.000000
      pz      :     0.000000  p :     0.000000
      px      :     0.000000
      py      :     0.000000
      dz2     :     0.000000  d :     0.000000
      dxz     :     0.000000
      dyz     :     0.000000
      dx2y2   :     0.000000
      dxy     :     0.000000
      f0      :     0.000000  f :     0.000000
      f+1     :     0.000000
      f-1     :     0.000000
      f+2     :     0.000000
      f-2     :     0.000000
      f+3     :     0.000000
      f-3     :     0.000000
 16 C s       :     0.000000  s :     0.000000
      pz      :     0.000000  p :     0.000000
      px      :     0.000000
      py      :     0.000000
      dz2     :     0.000000  d :     0.000000
      dxz     :     0.000000
      dyz     :     0.000000
      dx2y2   :     0.000000
      dxy     :     0.000000
      f0      :     0.000000  f :     0.000000
      f+1     :     0.000000
      f-1     :     0.000000
      f+2     :     0.000000
      f-2     :     0.000000
      f+3     :     0.000000
      f-3     :     0.000000
 17 C s       :     0.000000  s :     0.000000
      pz      :     0.000000  p :     0.000000
      px      :     0.000000
      py      :     0.000000
      dz2     :     0.000000  d :     0.000000
      dxz     :     0.000000
      dyz     :     0.000000
      dx2y2   :     0.000000
      dxy     :     0.000000
      f0      :     0.000000  f :     0.000000
      f+1     :     0.000000
      f-1     :     0.000000
      f+2     :     0.000000
      f-2     :     0.000000
      f+3     :     0.000000
      f-3     :     0.000000
 18 C s       :     0.000000  s :     0.000000
      pz      :     0.000000  p :     0.000000
      px      :     0.000000
      py      :     0.000000
      dz2     :     0.000000  d :     0.000000
      dxz     :     0.000000
      dyz     :     0.000000
      dx2y2   :     0.000000
      dxy     :     0.000000
      f0      :     0.000000  f :     0.000000
      f+1     :     0.000000
      f-1     :     0.000000
      f+2     :     0.000000
      f-2     :     0.000000
      f+3     :     0.000000
      f-3     :     0.000000
 19 C s       :     0.000000  s :     0.000000
      pz      :     0.000000  p :     0.000000
      px      :     0.000000
      py      :     0.000000
      dz2     :     0.000000  d :     0.000000
      dxz     :     0.000000
      dyz     :     0.000000
      dx2y2   :     0.000000
      dxy     :     0.000000
      f0      :     0.000000  f :     0.000000
      f+1     :     0.000000
      f-1     :     0.000000
      f+2     :     0.000000
      f-2     :     0.000000
      f+3     :     0.000000
      f-3     :     0.000000
 20 S s       :     0.000000  s :     0.000000
      pz      :     0.000000  p :     0.000000
      px      :     0.000000
      py      :     0.000000
      dz2     :     0.000000  d :     0.000000
      dxz     :     0.000000
      dyz     :     0.000000
      dx2y2   :     0.000000
      dxy     :     0.000000
      f0      :     0.000000  f :     0.000000
      f+1     :     0.000000
      f-1     :     0.000000
      f+2     :     0.000000
      f-2     :     0.000000
      f+3     :     0.000000
      f-3     :     0.000000
 21 C s       :     0.000000  s :     0.000000
      pz      :     0.000000  p :     0.000000
      px      :     0.000000
      py      :     0.000000
      dz2     :     0.000000  d :     0.000000
      dxz     :     0.000000
      dyz     :     0.000000
      dx2y2   :     0.000000
      dxy     :     0.000000
      f0      :     0.000000  f :     0.000000
      f+1     :     0.000000
      f-1     :     0.000000
      f+2     :     0.000000
      f-2     :     0.000000
      f+3     :     0.000000
      f-3     :     0.000000
 22 H s       :     0.000000  s :     0.000000
      pz      :     0.000000  p :     0.000000
      px      :     0.000000
      py      :     0.000000
 23 H s       :     0.000000  s :     0.000000
      pz      :     0.000000  p :     0.000000
      px      :     0.000000
      py      :     0.000000
 24 H s       :     0.000000  s :     0.000000
      pz      :     0.000000  p :     0.000000
      px      :     0.000000
      py      :     0.000000
 25 H s       :     0.000000  s :     0.000000
      pz      :     0.000000  p :     0.000000
      px      :     0.000000
      py      :     0.000000
 26 H s       :     0.000000  s :     0.000000
      pz      :     0.000000  p :     0.000000
      px      :     0.000000
      py      :     0.000000
 27 H s       :     0.000000  s :     0.000000
      pz      :     0.000000  p :     0.000000
      px      :     0.000000
      py      :     0.000000
 28 H s       :     0.000000  s :     0.000000
      pz      :     0.000000  p :     0.000000
      px      :     0.000000
      py      :     0.000000
 29 H s       :     0.000000  s :     0.000000
      pz      :     0.000000  p :     0.000000
      px      :     0.000000
      py      :     0.000000
 30 H s       :     0.000000  s :     0.000000
      pz      :     0.000000  p :     0.000000
      px      :     0.000000
      py      :     0.000000
 31 H s       :     0.000000  s :     0.000000
      pz      :     0.000000  p :     0.000000
      px      :     0.000000
      py      :     0.000000
 32 H s       :     0.000000  s :     0.000000
      pz      :     0.000000  p :     0.000000
      px      :     0.000000
      py      :     0.000000
 33 H s       :     0.000000  s :     0.000000
      pz      :     0.000000  p :     0.000000
      px      :     0.000000
      py      :     0.000000
 34 H s       :     0.000000  s :     0.000000
      pz      :     0.000000  p :     0.000000
      px      :     0.000000
      py      :     0.000000
 35 H s       :     0.000000  s :     0.000000
      pz      :     0.000000  p :     0.000000
      px      :     0.000000
      py      :     0.000000


                      *****************************
                      * MAYER POPULATION ANALYSIS *
                      *****************************

  NA   - Mulliken gross atomic population
  ZA   - Total nuclear charge
  QA   - Mulliken gross atomic charge
  VA   - Mayer's total valence
  BVA  - Mayer's bonded valence
  FA   - Mayer's free valence

  ATOM       NA         ZA         QA         VA         BVA        FA
  0 C      6.4204     6.0000    -0.4204     3.9204     3.9204     0.0000
  1 S     16.0562    16.0000    -0.0562     2.4525     2.4525    -0.0000
  2 C      5.8387     6.0000     0.1613     3.8382     3.8382     0.0000
  3 C      6.2254     6.0000    -0.2254     3.8602     3.8602    -0.0000
  4 C      6.2422     6.0000    -0.2422     4.0034     4.0034     0.0000
  5 C      5.8693     6.0000     0.1307     3.5487     3.5487     0.0000
  6 C      6.2586     6.0000    -0.2586     4.0137     4.0137     0.0000
  7 C      6.1899     6.0000    -0.1899     3.8659     3.8659     0.0000
  8 C      5.6637     6.0000     0.3363     4.2772     4.2772     0.0000
  9 O      8.0990     8.0000    -0.0990     2.0103     2.0103    -0.0000
 10 O      8.3696     8.0000    -0.3696     2.1478     2.1478     0.0000
 11 O      8.1104     8.0000    -0.1104     2.0472     2.0472    -0.0000
 12 C      5.6383     6.0000     0.3617     4.2168     4.2168     0.0000
 13 C      5.8968     6.0000     0.1032     3.5652     3.5652     0.0000
 14 O      8.3919     8.0000    -0.3919     2.1199     2.1199     0.0000
 15 C      6.2358     6.0000    -0.2358     3.9870     3.9870    -0.0000
 16 C      6.1867     6.0000    -0.1867     3.8713     3.8713     0.0000
 17 C      5.8332     6.0000     0.1668     3.8372     3.8372    -0.0000
 18 C      6.2312     6.0000    -0.2312     3.8638     3.8638     0.0000
 19 C      6.2312     6.0000    -0.2312     3.9722     3.9722     0.0000
 20 S     16.0494    16.0000    -0.0494     2.4678     2.4678    -0.0000
 21 C      6.4199     6.0000    -0.4199     3.9213     3.9213    -0.0000
 22 H      0.8087     1.0000     0.1913     0.9551     0.9551    -0.0000
 23 H      0.8230     1.0000     0.1770     0.9577     0.9577     0.0000
 24 H      0.8234     1.0000     0.1766     0.9556     0.9556    -0.0000
 25 H      0.8261     1.0000     0.1739     0.9648     0.9648    -0.0000
 26 H      0.8197     1.0000     0.1803     0.9656     0.9656    -0.0000
 27 H      0.8286     1.0000     0.1714     0.9664     0.9664    -0.0000
 28 H      0.8375     1.0000     0.1625     0.9677     0.9677    -0.0000
 29 H      0.8349     1.0000     0.1651     0.9774     0.9774    -0.0000
 30 H      0.8376     1.0000     0.1624     0.9688     0.9688     0.0000
 31 H      0.8257     1.0000     0.1743     0.9648     0.9648    -0.0000
 32 H      0.8236     1.0000     0.1764     0.9680     0.9680     0.0000
 33 H      0.8080     1.0000     0.1920     0.9548     0.9548    -0.0000
 34 H      0.8227     1.0000     0.1773     0.9568     0.9568     0.0000
 35 H      0.8227     1.0000     0.1773     0.9566     0.9566     0.0000

  Mayer bond orders larger than 0.100000
B(  0-C ,  1-S ) :   1.0629 B(  0-C , 22-H ) :   0.9361 B(  0-C , 23-H ) :   0.9483 
B(  0-C , 24-H ) :   0.9465 B(  1-S ,  2-C ) :   1.1886 B(  2-C ,  3-C ) :   1.2762 
B(  2-C ,  7-C ) :   1.2729 B(  3-C ,  4-C ) :   1.4523 B(  3-C , 25-H ) :   0.9605 
B(  4-C ,  5-C ) :   1.3126 B(  4-C , 26-H ) :   0.9419 B(  5-C ,  6-C ) :   1.3032 
B(  5-C ,  8-C ) :   0.9754 B(  6-C ,  7-C ) :   1.4803 B(  6-C , 27-H ) :   0.9744 
B(  7-C , 28-H ) :   0.9749 B(  8-C ,  9-O ) :   1.1142 B(  8-C , 10-O ) :   2.0555 
B(  9-O , 11-O ) :   0.8161 B( 11-O , 12-C ) :   1.1038 B( 12-C , 13-C ) :   1.0103 
B( 12-C , 14-O ) :   1.9823 B( 13-C , 15-C ) :   1.2836 B( 13-C , 19-C ) :   1.3186 
B( 15-C , 16-C ) :   1.4966 B( 15-C , 29-H ) :   0.9715 B( 16-C , 17-C ) :   1.2584 
B( 16-C , 30-H ) :   0.9758 B( 17-C , 18-C ) :   1.2792 B( 17-C , 20-S ) :   1.2002 
B( 18-C , 19-C ) :   1.4461 B( 18-C , 31-H ) :   0.9599 B( 19-C , 32-H ) :   0.9618 
B( 20-S , 21-C ) :   1.0631 B( 21-C , 33-H ) :   0.9356 B( 21-C , 34-H ) :   0.9475 
B( 21-C , 35-H ) :   0.9473 

-------
TIMINGS
-------

Total SCF time: 0 days 0 hours 2 min 16 sec 

Total time                  ....     136.511 sec
Sum of individual times     ....     134.075 sec  ( 98.2%)

Fock matrix formation       ....     126.816 sec  ( 92.9%)
  Split-RI-J                ....       7.107 sec  (  5.6% of F)
  Chain of spheres X        ....      96.368 sec  ( 76.0% of F)
  XC integration            ....      11.582 sec  (  9.1% of F)
    Basis function eval.    ....       2.115 sec  ( 18.3% of XC)
    Density eval.           ....       5.544 sec  ( 47.9% of XC)
    XC-Functional eval.     ....       0.209 sec  (  1.8% of XC)
    XC-Potential eval.      ....       2.653 sec  ( 22.9% of XC)
Diagonalization             ....       2.571 sec  (  1.9%)
Density matrix formation    ....       0.127 sec  (  0.1%)
Population analysis         ....       0.395 sec  (  0.3%)
Initial guess               ....       0.454 sec  (  0.3%)
Orbital Transformation      ....       0.000 sec  (  0.0%)
Orbital Orthonormalization  ....       0.398 sec  (  0.3%)
DIIS solution               ....       0.975 sec  (  0.7%)
Grid generation             ....       2.736 sec  (  2.0%)

Maximum memory used throughout the entire SCF-calculation: 185.2 MB


-------------------------------------------------------------------------------
                          DFT DISPERSION CORRECTION                            
                                                                               
                              DFTD3 V3.1  Rev 1                                
                          USING Becke-Johnson damping                          
-------------------------------------------------------------------------------
The PBE0 functional is recognized
Active option DFTDOPT                   ...         4   

molecular C6(AA) [au] = 19259.385739 


            DFT-D V3
 parameters
 s6 scaling factor         :     1.0000 
 a1 scaling factor         :     0.4145 
 s8 scaling factor         :     1.2177 
 a2 scaling factor         :     4.8593 
 ad hoc parameters k1-k3   :    16.0000     1.3333    -4.0000 

 Edisp/kcal,au: -27.604322194480  -0.043990282842 
 E6   /kcal   : -17.054016686 
 E8   /kcal   : -10.550305509 
 % E8         :  38.219759334 

-------------------------   ----------------
Dispersion correction           -0.043990283
-------------------------   ----------------


-------------------------   --------------------
FINAL SINGLE POINT ENERGY     -1714.460900390642
-------------------------   --------------------

                                *** OPTIMIZATION RUN DONE ***

                            ***************************************
                            *     ORCA property calculations      *
                            ***************************************

                                    ---------------------
                                    Active property flags
                                    ---------------------
   (+) Dipole Moment


------------------------------------------------------------------------------
                       ORCA ELECTRIC PROPERTIES CALCULATION
------------------------------------------------------------------------------

Dipole Moment Calculation                       ... on
Quadrupole Moment Calculation                   ... off
Polarizability Calculation                      ... off
GBWName                                         ... /burg/berkelbach/users/eav2136/projects/peroxide_dissociation/04_solvated_radical/nmf_peroxide/nmf_peroxide_opt.gbw
Electron density                                ... /burg/berkelbach/users/eav2136/projects/peroxide_dissociation/04_solvated_radical/nmf_peroxide/nmf_peroxide_opt.scfp
The origin for moment calculation is the CENTER OF MASS  = (-0.250526,  3.461022  5.633850)

-------------
DIPOLE MOMENT
-------------
                                X             Y             Z
Electronic contribution:     -0.73718      -8.42870     -13.13529
Nuclear contribution   :      1.39536      10.48377      17.46911
                        -----------------------------------------
Total Dipole Moment    :      0.65819       2.05507       4.33381
                        -----------------------------------------
Magnitude (a.u.)       :      4.84133
Magnitude (Debye)      :     12.30568



--------------------
Rotational spectrum 
--------------------
 
Rotational constants in cm-1:     0.008926     0.005232     0.003586 
Rotational constants in MHz :   267.581464   156.839414   107.506516 

 Dipole components along the rotational axes: 
x,y,z [a.u.] :     2.545039     4.095732    -0.431534 
x,y,z [Debye]:     6.468975    10.410524    -1.096872 

 

Timings for individual modules:

Sum of individual times         ...     2821.356 sec (=  47.023 min)
GTO integral calculation        ...       54.377 sec (=   0.906 min)   1.9 %
SCF iterations                  ...     2165.912 sec (=  36.099 min)  76.8 %
SCF Gradient evaluation         ...      599.409 sec (=   9.990 min)  21.2 %
Geometry relaxation             ...        1.657 sec (=   0.028 min)   0.1 %
                             ****ORCA TERMINATED NORMALLY****
TOTAL RUN TIME: 0 days 0 hours 47 minutes 19 seconds 819 msec
