Job execution start: Fri Apr 22 11:34:34 EDT 2022
Shared library path: /cm/shared/apps/cuda11.0/toolkit/11.0.3/compat:/burg/berkelbach/users/eav2136/builds/orca/5.0.3/orca:/cm/shared/apps/ucx/1.8.1/lib64:/cm/local/apps/cuda/libs/current/lib64:/cm/shared/apps/cuda11.0/toolkit/11.0.3/targets/x86_64-linux/lib:/cm/shared/apps/cuda11.0/visual-tools/11.0.3/libnvvp:/burg/opt/openmpi-4.1.1_ucx_cuda_11.0.3_support/lib:/cm/shared/apps/slurm/current/lib64/slurm:/cm/shared/apps/slurm/current/lib64
Slurm Job ID is: 1845599
Slurm Job name is: wb97x-d-peroxide-nmf_opt
g067

                                 *****************
                                 * O   R   C   A *
                                 *****************

                                            #,                                       
                                            ###                                      
                                            ####                                     
                                            #####                                    
                                            ######                                   
                                           ########,                                 
                                     ,,################,,,,,                         
                               ,,#################################,,                 
                          ,,##########################################,,             
                       ,#########################################, ''#####,          
                    ,#############################################,,   '####,        
                  ,##################################################,,,,####,       
                ,###########''''           ''''###############################       
              ,#####''   ,,,,##########,,,,          '''####'''          '####       
            ,##' ,,,,###########################,,,                        '##       
           ' ,,###''''                  '''############,,,                           
         ,,##''                                '''############,,,,        ,,,,,,###''
      ,#''                                            '''#######################'''  
     '                                                          ''''####''''         
             ,#######,   #######,   ,#######,      ##                                
            ,#'     '#,  ##    ##  ,#'     '#,    #''#        ######   ,####,        
            ##       ##  ##   ,#'  ##            #'  '#       #        #'  '#        
            ##       ##  #######   ##           ,######,      #####,   #    #        
            '#,     ,#'  ##    ##  '#,     ,#' ,#      #,         ##   #,  ,#        
             '#######'   ##     ##  '#######'  #'      '#     #####' # '####'        



                  #######################################################
                  #                        -***-                        #
                  #          Department of theory and spectroscopy      #
                  #    Directorship and core code : Frank Neese         #
                  #        Max Planck Institute fuer Kohlenforschung    #
                  #                Kaiser Wilhelm Platz 1               #
                  #                 D-45470 Muelheim/Ruhr               #
                  #                      Germany                        #
                  #                                                     #
                  #                  All rights reserved                #
                  #                        -***-                        #
                  #######################################################


                         Program Version 5.0.3 -  RELEASE  -


 With contributions from (in alphabetic order):
   Daniel Aravena         : Magnetic Suceptibility
   Michael Atanasov       : Ab Initio Ligand Field Theory (pilot matlab implementation)
   Alexander A. Auer      : GIAO ZORA, VPT2 properties, NMR spectrum
   Ute Becker             : Parallelization
   Giovanni Bistoni       : ED, misc. LED, open-shell LED, HFLD
   Martin Brehm           : Molecular dynamics
   Dmytro Bykov           : SCF Hessian
   Vijay G. Chilkuri      : MRCI spin determinant printing, contributions to CSF-ICE
   Dipayan Datta          : RHF DLPNO-CCSD density
   Achintya Kumar Dutta   : EOM-CC, STEOM-CC
   Dmitry Ganyushin       : Spin-Orbit,Spin-Spin,Magnetic field MRCI
   Miquel Garcia          : C-PCM and meta-GGA Hessian, CC/C-PCM, Gaussian charge scheme
   Yang Guo               : DLPNO-NEVPT2, F12-NEVPT2, CIM, IAO-localization
   Andreas Hansen         : Spin unrestricted coupled pair/coupled cluster methods
   Benjamin Helmich-Paris : MC-RPA, TRAH-SCF, COSX integrals
   Lee Huntington         : MR-EOM, pCC
   Robert Izsak           : Overlap fitted RIJCOSX, COSX-SCS-MP3, EOM
   Marcus Kettner         : VPT2
   Christian Kollmar      : KDIIS, OOCD, Brueckner-CCSD(T), CCSD density, CASPT2, CASPT2-K
   Simone Kossmann        : Meta GGA functionals, TD-DFT gradient, OOMP2, MP2 Hessian
   Martin Krupicka        : Initial AUTO-CI
   Lucas Lang             : DCDCAS
   Marvin Lechner         : AUTO-CI (C++ implementation), FIC-MRCC
   Dagmar Lenk            : GEPOL surface, SMD
   Dimitrios Liakos       : Extrapolation schemes; Compound Job, initial MDCI parallelization
   Dimitrios Manganas     : Further ROCIS development; embedding schemes
   Dimitrios Pantazis     : SARC Basis sets
   Anastasios Papadopoulos: AUTO-CI, single reference methods and gradients
   Taras Petrenko         : DFT Hessian,TD-DFT gradient, ASA, ECA, R-Raman, ABS, FL, XAS/XES, NRVS
   Peter Pinski           : DLPNO-MP2, DLPNO-MP2 Gradient
   Christoph Reimann      : Effective Core Potentials
   Marius Retegan         : Local ZFS, SOC
   Christoph Riplinger    : Optimizer, TS searches, QM/MM, DLPNO-CCSD(T), (RO)-DLPNO pert. Triples
   Tobias Risthaus        : Range-separated hybrids, TD-DFT gradient, RPA, STAB
   Michael Roemelt        : Original ROCIS implementation
   Masaaki Saitow         : Open-shell DLPNO-CCSD energy and density
   Barbara Sandhoefer     : DKH picture change effects
   Avijit Sen             : IP-ROCIS
   Kantharuban Sivalingam : CASSCF convergence, NEVPT2, FIC-MRCI
   Bernardo de Souza      : ESD, SOC TD-DFT
   Georgi Stoychev        : AutoAux, RI-MP2 NMR, DLPNO-MP2 response
   Willem Van den Heuvel  : Paramagnetic NMR
   Boris Wezisla          : Elementary symmetry handling
   Frank Wennmohs         : Technical directorship


 We gratefully acknowledge several colleagues who have allowed us to
 interface, adapt or use parts of their codes:
   Stefan Grimme, W. Hujo, H. Kruse, P. Pracht,  : VdW corrections, initial TS optimization,
                  C. Bannwarth, S. Ehlert          DFT functionals, gCP, sTDA/sTD-DF
   Ed Valeev, F. Pavosevic, A. Kumar             : LibInt (2-el integral package), F12 methods
   Garnet Chan, S. Sharma, J. Yang, R. Olivares  : DMRG
   Ulf Ekstrom                                   : XCFun DFT Library
   Mihaly Kallay                                 : mrcc  (arbitrary order and MRCC methods)
   Jiri Pittner, Ondrej Demel                    : Mk-CCSD
   Frank Weinhold                                : gennbo (NPA and NBO analysis)
   Christopher J. Cramer and Donald G. Truhlar   : smd solvation model
   Lars Goerigk                                  : TD-DFT with DH, B97 family of functionals
   V. Asgeirsson, H. Jonsson                     : NEB implementation
   FAccTs GmbH                                   : IRC, NEB, NEB-TS, DLPNO-Multilevel, CI-OPT
                                                   MM, QMMM, 2- and 3-layer-ONIOM, Crystal-QMMM,
                                                   LR-CPCM, SF, NACMEs, symmetry and pop. for TD-DFT,
                                                   nearIR, NL-DFT gradient (VV10), updates on ESD,
                                                   ML-optimized integration grids
   S Lehtola, MJT Oliveira, MAL Marques          : LibXC Library
   Liviu Ungur et al                             : ANISO software


 Your calculation uses the libint2 library for the computation of 2-el integrals
 For citations please refer to: http://libint.valeyev.net

 Your ORCA version has been built with support for libXC version: 5.1.0
 For citations please refer to: https://tddft.org/programs/libxc/

 This ORCA versions uses:
   CBLAS   interface :  Fast vector & matrix operations
   LAPACKE interface :  Fast linear algebra routines
   SCALAPACK package :  Parallel linear algebra routines
   Shared memory     :  Shared parallel matrices
   BLAS/LAPACK       :  OpenBLAS 0.3.15  USE64BITINT DYNAMIC_ARCH NO_AFFINITY SkylakeX SINGLE_THREADED
        Core in use  :  SkylakeX
   Copyright (c) 2011-2014, The OpenBLAS Project


Your calculation utilizes the atom-pairwise dispersion correction
with the zero-damping scheme (D30)
Cite in your paper:
S.Grimme, J.Antony, S.Ehrlich and H.Krieg, J.Chem.Phys., 132, (2010), 154104 
   

Your calculation utilizes the SMD solvation module
Please cite in your paper:
A.V. Marenich, C.J. Cramer, D.G. Truhlar J. Phys. Chem. B, 113, (2009), 6378 

XCFun DFT library Copyright 2009-2010 Ulf Ekstrom and contributors.
See http://admol.org/xcfun for more information.
This is free software; see the source code for copying conditions.
There is ABSOLUTELY NO WARRANTY; not even for MERCHANTABILITY or FITNESS FOR A PARTICULAR PURPOSE.
For details see the documentation.
Scientific users of this library should cite U. Ekstrom, L. Visscher, R. Bast, A. J. Thorvaldsen and K. Ruud;
J.Chem.Theor.Comp. 2010, DOI: 10.1021/ct100117s
XCFun Version 0.99 

================================================================================

----- Orbital basis set information -----
Your calculation utilizes the basis: def2-TZVP
   F. Weigend and R. Ahlrichs, Phys. Chem. Chem. Phys. 7, 3297 (2005).

----- AuxJ basis set information -----
Your calculation utilizes the auxiliary basis: def2/J
   F. Weigend, Phys. Chem. Chem. Phys. 8, 1057 (2006).

================================================================================
                                        WARNINGS
                       Please study these warnings very carefully!
================================================================================


WARNING: Geometry Optimization
  ===> : Switching off AutoStart
         For restart on a previous wavefunction, please use MOREAD

INFO   : the flag for use of the SHARK integral package has been found!

================================================================================
                                       INPUT FILE
================================================================================
NAME = /burg/berkelbach/users/eav2136/projects/peroxide_dissociation/05_range_separated_functional/wb97x-d-peroxide-nmf/wb97x-d-peroxide-nmf_opt.inp
|  1> ! UKS wB97X-D3 def2-TZVP TIGHTSCF Opt CPCM PAL8
|  2> %maxcore 5000
|  3> %cpcm
|  4> smd true
|  5> SMDsolvent "N-METHYLFORMAMIDE"
|  6> end
|  7> * xyz 0 1
|  8>  C -0.07425707479814 6.45007760366319 3.54636897867849
|  9>  S 1.48979584793712 6.08048225687873 2.75598260255209
| 10>  C 1.14936654141856 4.63662227087222 1.83369205968326
| 11>  C -0.09136557109480 4.00305286554088 1.79338352444578
| 12>  C -0.25826928718407 2.84269542505768 1.05936282240646
| 13>  C 0.80050967676942 2.30271389692801 0.33923873907232
| 14>  C 2.02875697338567 2.96040825022008 0.34201900047512
| 15>  C 2.20764771123846 4.10330343094754 1.09121055149825
| 16>  C 0.66254428710301 1.09941809961861 -0.50690159852297
| 17>  O 0.00000000000000 0.00000000000000 0.00000000000000
| 18>  O 1.06713866538631 0.98717129960580 -1.62357736506780
| 19>  O 0.00000000000000 0.00000000000000 1.41527284498687
| 20>  C -1.27388770944479 0.00000000000000 1.91590645535523
| 21>  C -1.22211457253867 0.06642777988277 3.38831477989974
| 22>  O -2.25742922897412 -0.02585779042736 1.23875652957256
| 23>  C -2.41543940252313 -0.12289611375011 4.08595252694906
| 24>  C -2.44195923478874 -0.03437680070658 5.45887710053507
| 25>  C -1.27275068522395 0.25496212808386 6.17298493884884
| 26>  C -0.08177795586127 0.45060655108151 5.47518008098465
| 27>  C -0.05890441770979 0.35440376081578 4.09544628781756
| 28>  S -1.42666733932306 0.34986111841343 7.90788531117200
| 29>  C 0.24316058065577 0.68495422113854 8.46194522255982
| 30>  H 0.10416325535368 7.34607684664392 4.14087383255362
| 31>  H -0.38882275224257 5.64387294862163 4.21002028523424
| 32>  H -0.85323854703301 6.66443357654391 2.81385647784552
| 33>  H -0.93700004363157 4.40513362395569 2.33421606140266
| 34>  H -1.23507439683237 2.37497021944690 1.02749021968162
| 35>  H 2.84544686618639 2.55882587909200 -0.24576673820719
| 36>  H 3.17295340310622 4.59670965109571 1.10248346369500
| 37>  H -3.31769085302541 -0.33900022625314 3.52707230389961
| 38>  H -3.37188538809726 -0.18808364875198 5.99464715790180
| 39>  H 0.83479761044422 0.68252071425859 5.99988733430662
| 40>  H 0.87046926144621 0.51883617942438 3.56602510045047
| 41>  H 0.18454114424639 0.73729393679500 9.54909076814075
| 42>  H 0.60864534290486 1.64029462399245 8.08374213903351
| 43>  H 0.92507514742305 -0.11949528816653 8.18458994466104
| 44> *
| 45> 
| 46>                          ****END OF INPUT****
================================================================================

                       *****************************
                       * Geometry Optimization Run *
                       *****************************

Geometry optimization settings:
Update method            Update   .... BFGS
Choice of coordinates    CoordSys .... Z-matrix Internals
Initial Hessian          InHess   .... Almoef's Model

Convergence Tolerances:
Energy Change            TolE     ....  5.0000e-06 Eh
Max. Gradient            TolMAXG  ....  3.0000e-04 Eh/bohr
RMS Gradient             TolRMSG  ....  1.0000e-04 Eh/bohr
Max. Displacement        TolMAXD  ....  4.0000e-03 bohr
RMS Displacement         TolRMSD  ....  2.0000e-03 bohr
Strict Convergence                ....  False
------------------------------------------------------------------------------
                        ORCA OPTIMIZATION COORDINATE SETUP
------------------------------------------------------------------------------

The optimization will be done in new redundant internal coordinates
Making redundant internal coordinates   ...  (new redundants) done
Evaluating the initial hessian          ...  (Almloef) done
Evaluating the coordinates              ...  done
Calculating the B-matrix                .... done
Calculating the G-matrix                .... done
Diagonalizing the G-matrix              .... done
Small eigenvalue found = 6.813e-04
Small eigenvalue found = 1.847e-03
Small eigenvalue found = 4.132e-03
Small eigenvalue found = 1.197e-02
Small eigenvalue found = 1.299e-02
Small eigenvalue found = 2.647e-02
The first mode is                       ....   64
The number of degrees of freedom        ....  102

    -----------------------------------------------------------------
                    Redundant Internal Coordinates


    -----------------------------------------------------------------
         Definition                    Initial Value    Approx d2E/dq
    -----------------------------------------------------------------
      1. B(S   1,C   0)                  1.7910         0.386175   
      2. B(C   2,S   1)                  1.7468         0.454240   
      3. B(C   3,C   2)                  1.3937         0.616320   
      4. B(C   4,C   3)                  1.3831         0.640745   
      5. B(C   5,C   4)                  1.3897         0.625563   
      6. B(C   6,C   5)                  1.3933         0.617369   
      7. B(C   7,C   2)                  1.3985         0.605696   
      8. B(C   7,C   6)                  1.3782         0.652421   
      9. B(C   8,C   5)                  1.4775         0.453096   
     10. B(O   9,C   8)                  1.3801         0.580356   
     11. B(O  10,C   8)                  1.1930         1.153901   
     12. B(O  11,O   9)                  1.4153         0.456763   
     13. B(C  12,O  11)                  1.3687         0.605075   
     14. B(C  13,C  12)                  1.4748         0.457532   
     15. B(O  14,C  12)                  1.1944         1.148067   
     16. B(C  15,C  13)                  1.3952         0.612988   
     17. B(C  16,C  15)                  1.3760         0.657696   
     18. B(C  17,C  16)                  1.4003         0.601695   
     19. B(C  18,C  17)                  1.3941         0.615367   
     20. B(C  19,C  18)                  1.3833         0.640430   
     21. B(C  19,C  13)                  1.3914         0.621567   
     22. B(S  20,C  17)                  1.7443         0.458402   
     23. B(C  21,S  20)                  1.7910         0.386167   
     24. B(H  22,C   0)                  1.0900         0.360109   
     25. B(H  23,C   0)                  1.0906         0.359342   
     26. B(H  24,C   0)                  1.0906         0.359351   
     27. B(H  25,C   3)                  1.0813         0.371759   
     28. B(H  26,C   4)                  1.0835         0.368828   
     29. B(H  27,C   6)                  1.0834         0.368946   
     30. B(H  28,C   7)                  1.0842         0.367916   
     31. B(H  29,C  15)                  1.0831         0.369344   
     32. B(H  30,C  16)                  1.0842         0.367887   
     33. B(H  31,C  18)                  1.0813         0.371793   
     34. B(H  32,C  19)                  1.0822         0.370628   
     35. B(H  33,C  21)                  1.0900         0.360124   
     36. B(H  34,C  21)                  1.0905         0.359378   
     37. B(H  35,C  21)                  1.0904         0.359511   
     38. A(H  22,C   0,H  23)          108.8436         0.290744   
     39. A(H  22,C   0,H  24)          108.7656         0.290746   
     40. A(S   1,C   0,H  24)          111.5879         0.342618   
     41. A(S   1,C   0,H  23)          111.5859         0.342616   
     42. A(H  23,C   0,H  24)          110.3658         0.290648   
     43. A(S   1,C   0,H  22)          105.5091         0.342738   
     44. A(C   0,S   1,C   2)          103.4970         0.419917   
     45. A(C   3,C   2,C   7)          119.0102         0.431786   
     46. A(S   1,C   2,C   3)          124.3692         0.432719   
     47. A(S   1,C   2,C   7)          116.6202         0.431369   
     48. A(C   2,C   3,C   4)          120.2744         0.436178   
     49. A(C   4,C   3,H  25)          118.8821         0.356807   
     50. A(C   2,C   3,H  25)          120.8433         0.354461   
     51. A(C   5,C   4,H  26)          120.2581         0.354880   
     52. A(C   3,C   4,H  26)          119.1145         0.356327   
     53. A(C   3,C   4,C   5)          120.6005         0.437350   
     54. A(C   4,C   5,C   6)          119.1567         0.434432   
     55. A(C   4,C   5,C   8)          122.8259         0.411072   
     56. A(C   6,C   5,C   8)          117.8994         0.410112   
     57. A(C   7,C   6,H  27)          120.2952         0.357442   
     58. A(C   5,C   6,H  27)          119.2412         0.354107   
     59. A(C   5,C   6,C   7)          120.4618         0.437734   
     60. A(C   6,C   7,H  28)          119.9087         0.357272   
     61. A(C   2,C   7,H  28)          119.6508         0.352797   
     62. A(C   2,C   7,C   6)          120.4398         0.436231   
     63. A(O   9,C   8,O  10)          115.5727         0.473849   
     64. A(C   5,C   8,O  10)          125.5219         0.455899   
     65. A(C   5,C   8,O   9)          118.8999         0.403044   
     66. A(C   8,O   9,O  11)          111.5490         0.398410   
     67. A(O   9,O  11,C  12)          111.4547         0.401345   
     68. A(C  13,C  12,O  14)          126.5770         0.456288   
     69. A(O  11,C  12,O  14)          123.9896         0.477054   
     70. A(O  11,C  12,C  13)          109.4203         0.406723   
     71. A(C  12,C  13,C  19)          123.0966         0.411315   
     72. A(C  15,C  13,C  19)          119.2748         0.433376   
     73. A(C  12,C  13,C  15)          117.5858         0.410303   
     74. A(C  16,C  15,H  29)          120.7715         0.357997   
     75. A(C  13,C  15,H  29)          118.7871         0.353745   
     76. A(C  13,C  15,C  16)          120.4413         0.437808   
     77. A(C  17,C  16,H  30)          119.5691         0.352397   
     78. A(C  15,C  16,H  30)          120.0309         0.357757   
     79. A(C  15,C  16,C  17)          120.3999         0.436343   
     80. A(C  16,C  17,S  20)          116.4104         0.431562   
     81. A(C  18,C  17,S  20)          124.4423         0.433309   
     82. A(C  16,C  17,C  18)          119.1469         0.431152   
     83. A(C  17,C  18,C  19)          120.2393         0.436018   
     84. A(C  19,C  18,H  31)          119.0068         0.356782   
     85. A(C  17,C  18,H  31)          120.7535         0.354374   
     86. A(C  13,C  19,C  18)          120.4962         0.436806   
     87. A(C  18,C  19,H  32)          119.4465         0.356592   
     88. A(C  13,C  19,H  32)          120.0518         0.354788   
     89. A(C  17,S  20,C  21)          103.6272         0.420599   
     90. A(H  34,C  21,H  35)          110.3939         0.290673   
     91. A(H  33,C  21,H  35)          108.8290         0.290768   
     92. A(S  20,C  21,H  35)          111.4899         0.342642   
     93. A(H  33,C  21,H  34)          108.7753         0.290751   
     94. A(S  20,C  21,H  34)          111.6593         0.342620   
     95. A(S  20,C  21,H  33)          105.5095         0.342739   
     96. D(C   2,S   1,C   0,H  22)    179.5234         0.003898   
     97. D(C   2,S   1,C   0,H  23)     61.4721         0.003898   
     98. D(C   2,S   1,C   0,H  24)    -62.5176         0.003898   
     99. D(C   3,C   2,S   1,C   0)      0.0768         0.004531   
    100. D(C   7,C   2,S   1,C   0)    179.8441         0.004531   
    101. D(C   4,C   3,C   2,C   7)      1.8479         0.026266   
    102. D(C   4,C   3,C   2,S   1)   -178.3900         0.026266   
    103. D(H  25,C   3,C   2,C   7)   -178.3097         0.026266   
    104. D(H  25,C   3,C   2,S   1)      1.4524         0.026266   
    105. D(H  26,C   4,C   3,H  25)      1.1825         0.028529   
    106. D(H  26,C   4,C   3,C   2)   -178.9720         0.028529   
    107. D(C   5,C   4,C   3,H  25)    179.3028         0.028529   
    108. D(C   5,C   4,C   3,C   2)     -0.8517         0.028529   
    109. D(C   6,C   5,C   4,H  26)    176.7603         0.027109   
    110. D(C   6,C   5,C   4,C   3)     -1.3385         0.027109   
    111. D(C   8,C   5,C   4,C   3)   -177.3042         0.027109   
    112. D(C   8,C   5,C   4,H  26)      0.7946         0.027109   
    113. D(H  27,C   6,C   5,C   8)     -1.7852         0.026361   
    114. D(H  27,C   6,C   5,C   4)   -177.9495         0.026361   
    115. D(C   7,C   6,C   5,C   8)    178.6982         0.026361   
    116. D(C   7,C   6,C   5,C   4)      2.5338         0.026361   
    117. D(H  28,C   7,C   6,H  27)     -0.7379         0.029652   
    118. D(H  28,C   7,C   6,C   5)    178.7736         0.029652   
    119. D(C   2,C   7,C   6,H  27)    178.9472         0.029652   
    120. D(C   2,C   7,C   6,C   5)     -1.5413         0.029652   
    121. D(H  28,C   7,C   2,C   3)    179.0287         0.025317   
    122. D(H  28,C   7,C   2,S   1)     -0.7516         0.025317   
    123. D(C   6,C   7,C   2,C   3)     -0.6572         0.025317   
    124. D(C   6,C   7,C   2,S   1)    179.5625         0.025317   
    125. D(O   9,C   8,C   5,C   6)    137.7156         0.013991   
    126. D(O   9,C   8,C   5,C   4)    -46.2708         0.013991   
    127. D(O  10,C   8,C   5,C   6)    -43.1749         0.013991   
    128. D(O  10,C   8,C   5,C   4)    132.8388         0.013991   
    129. D(O  11,O   9,C   8,O  10)    157.9229         0.024498   
    130. D(O  11,O   9,C   8,C   5)    -22.8806         0.024498   
    131. D(C  12,O  11,O   9,C   8)    121.0745         0.015467   
    132. D(O  14,C  12,O  11,O   9)      1.4962         0.026770   
    133. D(C  13,C  12,O  11,O   9)   -177.2626         0.026770   
    134. D(C  19,C  13,C  12,O  14)   -167.0428         0.014262   
    135. D(C  19,C  13,C  12,O  11)     11.6757         0.014262   
    136. D(C  15,C  13,C  12,O  14)     10.5550         0.014262   
    137. D(C  15,C  13,C  12,O  11)   -170.7265         0.014262   
    138. D(H  29,C  15,C  13,C  19)    179.5255         0.025966   
    139. D(H  29,C  15,C  13,C  12)      1.8326         0.025966   
    140. D(C  16,C  15,C  13,C  19)     -0.4006         0.025966   
    141. D(C  16,C  15,C  13,C  12)   -178.0935         0.025966   
    142. D(H  30,C  16,C  15,H  29)      0.4119         0.030169   
    143. D(H  30,C  16,C  15,C  13)   -179.6635         0.030169   
    144. D(C  17,C  16,C  15,H  29)   -179.5362         0.030169   
    145. D(C  17,C  16,C  15,C  13)      0.3884         0.030169   
    146. D(S  20,C  17,C  16,H  30)     -0.2280         0.024966   
    147. D(S  20,C  17,C  16,C  15)    179.7203         0.024966   
    148. D(C  18,C  17,C  16,H  30)    179.9814         0.024966   
    149. D(C  18,C  17,C  16,C  15)     -0.0703         0.024966   
    150. D(H  31,C  18,C  17,S  20)     -0.2266         0.026180   
    151. D(H  31,C  18,C  17,C  16)    179.5460         0.026180   
    152. D(C  19,C  18,C  17,S  20)    179.9944         0.026180   
    153. D(C  19,C  18,C  17,C  16)     -0.2330         0.026180   
    154. D(C  13,C  19,C  18,C  17)      0.2195         0.028499   
    155. D(H  32,C  19,C  13,C  15)   -179.0463         0.026742   
    156. D(H  32,C  19,C  13,C  12)     -1.4873         0.026742   
    157. D(C  18,C  19,C  13,C  15)      0.0962         0.026742   
    158. D(C  18,C  19,C  13,C  12)    177.6553         0.026742   
    159. D(H  32,C  19,C  18,H  31)     -0.4157         0.028499   
    160. D(H  32,C  19,C  18,C  17)    179.3672         0.028499   
    161. D(C  13,C  19,C  18,H  31)   -179.5634         0.028499   
    162. D(C  21,S  20,C  17,C  18)     -1.6462         0.004589   
    163. D(C  21,S  20,C  17,C  16)    178.5756         0.004589   
    164. D(H  35,C  21,S  20,C  17)    -61.2749         0.003898   
    165. D(H  34,C  21,S  20,C  17)     62.7331         0.003898   
    166. D(H  33,C  21,S  20,C  17)   -179.2586         0.003898   
    -----------------------------------------------------------------

Number of atoms                         .... 36
Number of degrees of freedom            .... 166

         *************************************************************
         *                GEOMETRY OPTIMIZATION CYCLE   1            *
         *************************************************************
---------------------------------
CARTESIAN COORDINATES (ANGSTROEM)
---------------------------------
  C     -0.074257    6.450078    3.546369
  S      1.489796    6.080482    2.755983
  C      1.149367    4.636622    1.833692
  C     -0.091366    4.003053    1.793384
  C     -0.258269    2.842695    1.059363
  C      0.800510    2.302714    0.339239
  C      2.028757    2.960408    0.342019
  C      2.207648    4.103303    1.091211
  C      0.662544    1.099418   -0.506902
  O      0.000000    0.000000    0.000000
  O      1.067139    0.987171   -1.623577
  O      0.000000    0.000000    1.415273
  C     -1.273888    0.000000    1.915906
  C     -1.222115    0.066428    3.388315
  O     -2.257429   -0.025858    1.238757
  C     -2.415439   -0.122896    4.085953
  C     -2.441959   -0.034377    5.458877
  C     -1.272751    0.254962    6.172985
  C     -0.081778    0.450607    5.475180
  C     -0.058904    0.354404    4.095446
  S     -1.426667    0.349861    7.907885
  C      0.243161    0.684954    8.461945
  H      0.104163    7.346077    4.140874
  H     -0.388823    5.643873    4.210020
  H     -0.853239    6.664434    2.813856
  H     -0.937000    4.405134    2.334216
  H     -1.235074    2.374970    1.027490
  H      2.845447    2.558826   -0.245767
  H      3.172953    4.596710    1.102483
  H     -3.317691   -0.339000    3.527072
  H     -3.371885   -0.188084    5.994647
  H      0.834798    0.682521    5.999887
  H      0.870469    0.518836    3.566025
  H      0.184541    0.737294    9.549091
  H      0.608645    1.640295    8.083742
  H      0.925075   -0.119495    8.184590

----------------------------
CARTESIAN COORDINATES (A.U.)
----------------------------
  NO LB      ZA    FRAG     MASS         X           Y           Z
   0 C     6.0000    0    12.011   -0.140326   12.188880    6.701666
   1 S    16.0000    0    32.060    2.815306   11.490446    5.208052
   2 C     6.0000    0    12.011    2.171988    8.761946    3.465176
   3 C     6.0000    0    12.011   -0.172656    7.564674    3.389004
   4 C     6.0000    0    12.011   -0.488058    5.371916    2.001906
   5 C     6.0000    0    12.011    1.512744    4.351499    0.641068
   6 C     6.0000    0    12.011    3.833795    5.594361    0.646322
   7 C     6.0000    0    12.011    4.171850    7.754120    2.062089
   8 C     6.0000    0    12.011    1.252027    2.077599   -0.957905
   9 O     8.0000    0    15.999    0.000000    0.000000    0.000000
  10 O     8.0000    0    15.999    2.016600    1.865483   -3.068117
  11 O     8.0000    0    15.999    0.000000    0.000000    2.674478
  12 C     6.0000    0    12.011   -2.407299    0.000000    3.620538
  13 C     6.0000    0    12.011   -2.309462    0.125530    6.402987
  14 O     8.0000    0    15.999   -4.265923   -0.048864    2.340911
  15 C     6.0000    0    12.011   -4.564519   -0.232240    7.721331
  16 C     6.0000    0    12.011   -4.614634   -0.064963   10.315783
  17 C     6.0000    0    12.011   -2.405150    0.481809   11.665251
  18 C     6.0000    0    12.011   -0.154538    0.851523   10.346591
  19 C     6.0000    0    12.011   -0.111313    0.669726    7.739272
  20 S    16.0000    0    32.060   -2.696011    0.661142   14.943738
  21 C     6.0000    0    12.011    0.459507    1.294376   15.990759
  22 H     1.0000    0     1.008    0.196840   13.882073    7.825117
  23 H     1.0000    0     1.008   -0.734769   10.665374    7.955785
  24 H     1.0000    0     1.008   -1.612387   12.593954    5.317418
  25 H     1.0000    0     1.008   -1.770673    8.324496    4.411029
  26 H     1.0000    0     1.008   -2.333952    4.488043    1.941675
  27 H     1.0000    0     1.008    5.377115    4.835480   -0.464432
  28 H     1.0000    0     1.008    5.996013    8.686522    2.083392
  29 H     1.0000    0     1.008   -6.269527   -0.640618    6.665201
  30 H     1.0000    0     1.008   -6.371940   -0.355427   11.328241
  31 H     1.0000    0     1.008    1.577539    1.289777   11.338144
  32 H     1.0000    0     1.008    1.644949    0.980458    6.738811
  33 H     1.0000    0     1.008    0.348732    1.393284   18.045166
  34 H     1.0000    0     1.008    1.150173    3.099708   15.276059
  35 H     1.0000    0     1.008    1.748139   -0.225813   15.466634

--------------------------------
INTERNAL COORDINATES (ANGSTROEM)
--------------------------------
 C      0   0   0     0.000000000000     0.00000000     0.00000000
 S      1   0   0     1.790969818017     0.00000000     0.00000000
 C      2   1   0     1.746780929995   103.49703222     0.00000000
 C      3   2   1     1.393718459520   124.36918170     0.07682297
 C      4   3   2     1.383138688329   120.27439762   181.60997218
 C      5   4   3     1.389666017657   120.60050203   359.14829865
 C      6   5   4     1.393255545064   119.15672375   358.66151732
 C      7   6   5     1.378223229504   120.46180539     2.53383799
 C      6   5   4     1.477466986255   122.82593719   182.69580816
 O      9   6   5     1.380084896203   118.89987975   313.72924568
 O      9   6   5     1.193004913083   125.52191253   132.83876530
 O     10   9   6     1.415272844987   111.54903739   337.11941713
 C     12  10   9     1.368730765383   111.45466078   121.07450275
 C     13  12  10     1.474815033092   109.42032141   182.73741157
 O     13  12  10     1.194384598005   123.98959865     1.49620750
 C     14  13  12     1.395193933712   117.58575536   189.27346256
 C     16  14  13     1.376030833609   120.44129595   181.90648253
 C     17  16  14     1.400255566970   120.39992501     0.38844050
 C     18  17  16     1.394139305089   119.14686446   359.92970699
 C     19  18  17     1.383272755320   120.23932774   359.76697987
 S     18  17  16     1.744297983907   116.41043178   179.72028820
 C     21  18  17     1.790976006328   103.62720090   178.57561880
 H      1   2   3     1.089992880213   105.50910599   179.52342869
 H      1   2   3     1.090573504139   111.58592171    61.47211732
 H      1   2   3     1.090566449636   111.58785041   297.48242808
 H      4   3   2     1.081326236832   120.84329981     1.45240478
 H      5   4   3     1.083480942612   119.11451180   181.02803207
 H      7   6   5     1.083394137146   119.24119758   182.05045369
 H      8   7   6     1.084154903776   119.90872766   178.77361985
 H     16  14  13     1.083100074365   118.78711222     1.83264212
 H     17  16  14     1.084176184997   120.03093279   180.33653865
 H     19  18  17     1.081301368500   120.75351253   179.54600540
 H     20  19  18     1.082155372130   119.44648422   179.36717552
 H     22  21  18     1.089982165651   105.50954915   180.74135630
 H     22  21  18     1.090546637769   111.65925285    62.73308778
 H     22  21  18     1.090445981958   111.48990618   298.72507539

---------------------------
INTERNAL COORDINATES (A.U.)
---------------------------
 C      0   0   0     0.000000000000     0.00000000     0.00000000
 S      1   0   0     3.384442470171     0.00000000     0.00000000
 C      2   1   0     3.300937573646   103.49703222     0.00000000
 C      3   2   1     2.633746196283   124.36918170     0.07682297
 C      4   3   2     2.613753326172   120.27439762   181.60997218
 C      5   4   3     2.626088190988   120.60050203   359.14829865
 C      6   5   4     2.632871414738   119.15672375   358.66151732
 C      7   6   5     2.604464455171   120.46180539     2.53383799
 C      6   5   4     2.792007975932   122.82593719   182.69580816
 O      9   6   5     2.607982495384   118.89987975   313.72924568
 O      9   6   5     2.254452562149   125.52191253   132.83876530
 O     10   9   6     2.674478081801   111.54903739   337.11941713
 C     12  10   9     2.586526297646   111.45466078   121.07450275
 C     13  12  10     2.786996510733   109.42032141   182.73741157
 O     13  12  10     2.257059788803   123.98959865     1.49620750
 C     14  13  12     2.636534438423   117.58575536   189.27346256
 C     16  14  13     2.600321427352   120.44129595   181.90648253
 C     17  16  14     2.646099539072   120.39992501     0.38844050
 C     18  17  16     2.634541479154   119.14686446   359.92970699
 C     19  18  17     2.614006676069   120.23932774   359.76697987
 S     18  17  16     3.296245485535   116.41043178   179.72028820
 C     21  18  17     3.384454164384   103.62720090   178.57561880
 H      1   2   3     2.059788031526   105.50910599   179.52342869
 H      1   2   3     2.060885251733   111.58592171    61.47211732
 H      1   2   3     2.060871920655   111.58785041   297.48242808
 H      4   3   2     2.043410449036   120.84329981     1.45240478
 H      5   4   3     2.047482252859   119.11451180   181.02803207
 H      7   6   5     2.047318214302   119.24119758   182.05045369
 H      8   7   6     2.048755854885   119.90872766   178.77361985
 H     16  14  13     2.046762516180   118.78711222     1.83264212
 H     17  16  14     2.048796070563   120.03093279   180.33653865
 H     19  18  17     2.043363454698   120.75351253   179.54600540
 H     20  19  18     2.044977287678   119.44648422   179.36717552
 H     22  21  18     2.059767783938   105.50954915   180.74135630
 H     22  21  18     2.060834481653   111.65925285    62.73308778
 H     22  21  18     2.060644269736   111.48990618   298.72507539

---------------------
BASIS SET INFORMATION
---------------------
There are 4 groups of distinct atoms

 Group   1 Type C   : 11s6p2d1f contracted to 5s3p2d1f pattern {62111/411/11/1}
 Group   2 Type S   : 14s9p3d1f contracted to 5s5p2d1f pattern {73211/51111/21/1}
 Group   3 Type O   : 11s6p2d1f contracted to 5s3p2d1f pattern {62111/411/11/1}
 Group   4 Type H   : 5s1p contracted to 3s1p pattern {311/1}

Atom   0C    basis set group =>   1
Atom   1S    basis set group =>   2
Atom   2C    basis set group =>   1
Atom   3C    basis set group =>   1
Atom   4C    basis set group =>   1
Atom   5C    basis set group =>   1
Atom   6C    basis set group =>   1
Atom   7C    basis set group =>   1
Atom   8C    basis set group =>   1
Atom   9O    basis set group =>   3
Atom  10O    basis set group =>   3
Atom  11O    basis set group =>   3
Atom  12C    basis set group =>   1
Atom  13C    basis set group =>   1
Atom  14O    basis set group =>   3
Atom  15C    basis set group =>   1
Atom  16C    basis set group =>   1
Atom  17C    basis set group =>   1
Atom  18C    basis set group =>   1
Atom  19C    basis set group =>   1
Atom  20S    basis set group =>   2
Atom  21C    basis set group =>   1
Atom  22H    basis set group =>   4
Atom  23H    basis set group =>   4
Atom  24H    basis set group =>   4
Atom  25H    basis set group =>   4
Atom  26H    basis set group =>   4
Atom  27H    basis set group =>   4
Atom  28H    basis set group =>   4
Atom  29H    basis set group =>   4
Atom  30H    basis set group =>   4
Atom  31H    basis set group =>   4
Atom  32H    basis set group =>   4
Atom  33H    basis set group =>   4
Atom  34H    basis set group =>   4
Atom  35H    basis set group =>   4
---------------------------------
AUXILIARY/J BASIS SET INFORMATION
---------------------------------
There are 4 groups of distinct atoms

 Group   1 Type C   : 12s5p4d2f1g contracted to 6s4p3d1f1g pattern {711111/2111/211/2/1}
 Group   2 Type S   : 14s5p5d2f1g contracted to 8s4p3d1f1g pattern {71111111/2111/311/2/1}
 Group   3 Type O   : 12s5p4d2f1g contracted to 6s4p3d1f1g pattern {711111/2111/211/2/1}
 Group   4 Type H   : 5s2p1d contracted to 3s1p1d pattern {311/2/1}

Atom   0C    basis set group =>   1
Atom   1S    basis set group =>   2
Atom   2C    basis set group =>   1
Atom   3C    basis set group =>   1
Atom   4C    basis set group =>   1
Atom   5C    basis set group =>   1
Atom   6C    basis set group =>   1
Atom   7C    basis set group =>   1
Atom   8C    basis set group =>   1
Atom   9O    basis set group =>   3
Atom  10O    basis set group =>   3
Atom  11O    basis set group =>   3
Atom  12C    basis set group =>   1
Atom  13C    basis set group =>   1
Atom  14O    basis set group =>   3
Atom  15C    basis set group =>   1
Atom  16C    basis set group =>   1
Atom  17C    basis set group =>   1
Atom  18C    basis set group =>   1
Atom  19C    basis set group =>   1
Atom  20S    basis set group =>   2
Atom  21C    basis set group =>   1
Atom  22H    basis set group =>   4
Atom  23H    basis set group =>   4
Atom  24H    basis set group =>   4
Atom  25H    basis set group =>   4
Atom  26H    basis set group =>   4
Atom  27H    basis set group =>   4
Atom  28H    basis set group =>   4
Atom  29H    basis set group =>   4
Atom  30H    basis set group =>   4
Atom  31H    basis set group =>   4
Atom  32H    basis set group =>   4
Atom  33H    basis set group =>   4
Atom  34H    basis set group =>   4
Atom  35H    basis set group =>   4


           ************************************************************
           *        Program running with 8 parallel MPI-processes     *
           *              working on a common directory               *
           ************************************************************
------------------------------------------------------------------------------
                           ORCA GTO INTEGRAL CALCULATION
                           -- RI-GTO INTEGRALS CHOSEN --
------------------------------------------------------------------------------
------------------------------------------------------------------------------
                   ___                                                        
                  /   \      - P O W E R E D   B Y -                         
                 /     \                                                     
                 |  |  |   _    _      __       _____    __    __             
                 |  |  |  | |  | |    /  \     |  _  \  |  |  /  |          
                  \  \/   | |  | |   /    \    | | | |  |  | /  /          
                 / \  \   | |__| |  /  /\  \   | |_| |  |  |/  /          
                |  |  |   |  __  | /  /__\  \  |    /   |      \           
                |  |  |   | |  | | |   __   |  |    \   |  |\   \          
                \     /   | |  | | |  |  |  |  | |\  \  |  | \   \       
                 \___/    |_|  |_| |__|  |__|  |_| \__\ |__|  \__/        
                                                                              
                      - O R C A' S   B I G   F R I E N D -                    
                                      &                                       
                       - I N T E G R A L  F E E D E R -                       
                                                                              
 v1 FN, 2020, v2 2021                                                         
------------------------------------------------------------------------------


Reading SHARK input file /burg/berkelbach/users/eav2136/projects/peroxide_dissociation/05_range_separated_functional/wb97x-d-peroxide-nmf/wb97x-d-peroxide-nmf_opt.SHARKINP.tmp ... ok
----------------------
SHARK INTEGRAL PACKAGE
----------------------

Number of atoms                             ...     36
Number of basis functions                   ...    778
Number of shells                            ...    302
Maximum angular momentum                    ...      3
Integral batch strategy                     ... SHARK/LIBINT Hybrid
RI-J (if used) integral strategy            ... SPLIT-RIJ (Revised 2003 algorithm where possible)
Printlevel                                  ...      1
Contraction scheme used                     ... SEGMENTED contraction
Coulomb Range Separation                    ... NOT USED
Exchange Range Separation                   ... Long Range
   Mu parameter                             ...  0.250000
   Scaling (regular/separated)              ...  0.195728  0.804272
Finite Nucleus Model                        ... NOT USED
Auxiliary Coulomb fitting basis             ... AVAILABLE
   # of basis functions in Aux-J            ...   1236
   # of shells in Aux-J                     ...    404
   Maximum angular momentum in Aux-J        ...      4
Auxiliary J/K fitting basis                 ... NOT available
Auxiliary Correlation fitting basis         ... NOT available
Auxiliary 'external' fitting basis          ... NOT available
Integral threshold                          ...     2.500000e-11
Primitive cut-off                           ...     2.500000e-12
Primitive pair pre-selection threshold      ...     2.500000e-12

Calculating pre-screening integrals         ... done (  0.1 sec) Dimension = 302
Organizing shell pair data                  ... done (  0.3 sec)
Shell pair information
Total number of shell pairs                 ...     45753
Shell pairs after pre-screening             ...     30707
Total number of primitive shell pairs       ...    145545
Primitive shell pairs kept                  ...     63502
          la=0 lb=0:   7523 shell pairs
          la=1 lb=0:   8937 shell pairs
          la=1 lb=1:   2674 shell pairs
          la=2 lb=0:   4331 shell pairs
          la=2 lb=1:   2602 shell pairs
          la=2 lb=2:    662 shell pairs
          la=3 lb=0:   2019 shell pairs
          la=3 lb=1:   1229 shell pairs
          la=3 lb=2:    589 shell pairs
          la=3 lb=3:    141 shell pairs

Calculating one electron integrals          ... done (  0.1 sec)
Calculating RI/J V-Matrix + Cholesky decomp.... done (  0.1 sec)
Calculating Nuclear repulsion               ... done (  0.0 sec) ENN=   1970.142246923818 Eh

SHARK setup successfully completed in   1.0 seconds

Maximum memory used throughout the entire GTOINT-calculation: 49.0 MB


           ************************************************************
           *        Program running with 8 parallel MPI-processes     *
           *              working on a common directory               *
           ************************************************************
-------------------------------------------------------------------------------
                                 ORCA SCF
-------------------------------------------------------------------------------

------------
SCF SETTINGS
------------
Hamiltonian:
 Density Functional     Method          .... DFT(GTOs)
 Exchange Functional    Exchange        .... WB97X-D3
 Correlation Functional Correlation     .... WB97X-D3
 Gradients option       PostSCFGGA      .... off
 Hybrid DFT is turned on
   Fraction HF Exchange ScalHFX         ....  0.195728
   Scaling of DF-GGA-X  ScalDFX         ....  0.000000
   Scaling of DF-GGA-C  ScalDFC         ....  1.000000
   Scaling of DF-LDA-C  ScalLDAC        ....  1.000000
   Perturbative correction              ....  0.000000
   Density functional embedding theory  .... OFF
 Long-range corrected/Screened/Range-Separated Hybrid DFT is turned on
   Amount of maximum screened exact exchange              ....  0.804272
   Range separation parameter mu (erf(mu*r12)/r12)        ....  0.250000
 RI-approximation to the Coulomb term is turned on
   Number of AuxJ basis functions       .... 1236
   RIJ-COSX (HFX calculated with COS-X)).... on


General Settings:
 Integral files         IntName         .... /burg/berkelbach/users/eav2136/projects/peroxide_dissociation/05_range_separated_functional/wb97x-d-peroxide-nmf/wb97x-d-peroxide-nmf_opt
 Hartree-Fock type      HFTyp           .... UHF
 Total Charge           Charge          ....    0
 Multiplicity           Mult            ....    1
 Number of Electrons    NEL             ....  174
 Basis Dimension        Dim             ....  778
 Nuclear Repulsion      ENuc            ....   1970.1422469238 Eh

Convergence Acceleration:
 DIIS                   CNVDIIS         .... on
   Start iteration      DIISMaxIt       ....    12
   Startup error        DIISStart       ....  0.200000
   # of expansion vecs  DIISMaxEq       ....     5
   Bias factor          DIISBfac        ....   1.050
   Max. coefficient     DIISMaxC        ....  10.000
 Trust-Rad. Augm. Hess. CNVTRAH         .... auto
   Auto Start mean grad. ratio tolernc. ....  1.125000
   Auto Start start iteration           ....    20
   Auto Start num. interpolation iter.  ....    10
   Max. Number of Micro iterations      ....    16
   Max. Number of Macro iterations      .... Maxiter - #DIIS iter
   Number of Davidson start vectors     ....     2
   Converg. threshold I  (grad. norm)   ....   1.000e-05
   Converg. threshold II (energy diff.) ....   1.000e-08
   Grad. Scal. Fac. for Micro threshold ....   0.100
   Minimum threshold for Micro iter.    ....   0.010
   NR start threshold (gradient norm)   ....   0.001
   Initial trust radius                 ....   0.400
   Minimum AH scaling param. (alpha)    ....   1.000
   Maximum AH scaling param. (alpha)    .... 1000.000
   Orbital update algorithm             .... Taylor
   White noise on init. David. guess    .... on
   Maximum white noise                  ....   0.010
   Quad. conv. algorithm                .... NR
 SOSCF                  CNVSOSCF        .... off
 Level Shifting         CNVShift        .... on
   Level shift para.    LevelShift      ....    0.2500
   Turn off err/grad.   ShiftErr        ....    0.0010
 Zerner damping         CNVZerner       .... off
 Static damping         CNVDamp         .... on
   Fraction old density DampFac         ....    0.7000
   Max. Damping (<1)    DampMax         ....    0.9800
   Min. Damping (>=0)   DampMin         ....    0.0000
   Turn off err/grad.   DampErr         ....    0.1000
 Fernandez-Rico         CNVRico         .... off

SCF Procedure:
 Maximum # iterations   MaxIter         ....   125
 SCF integral mode      SCFMode         .... Direct
   Integral package                     .... SHARK and LIBINT hybrid scheme
 Reset frequency        DirectResetFreq ....    20
 Integral Threshold     Thresh          ....  2.500e-11 Eh
 Primitive CutOff       TCut            ....  2.500e-12 Eh

Convergence Tolerance:
 Convergence Check Mode ConvCheckMode   .... Total+1el-Energy
 Convergence forced     ConvForced      .... 0
 Energy Change          TolE            ....  1.000e-08 Eh
 1-El. energy change                    ....  1.000e-05 Eh
 DIIS Error             TolErr          ....  5.000e-07


Diagonalization of the overlap matrix:
Smallest eigenvalue                        ... 6.410e-06
Time for diagonalization                   ...    0.095 sec
Threshold for overlap eigenvalues          ... 1.000e-08
Number of eigenvalues below threshold      ... 0
Time for construction of square roots      ...    0.061 sec
Total time needed                          ...    0.159 sec

Time for model grid setup =    0.277 sec

------------------------------
INITIAL GUESS: MODEL POTENTIAL
------------------------------
Loading Hartree-Fock densities                     ... done
Calculating cut-offs                               ... done
Initializing the effective Hamiltonian             ... done
Setting up the integral package (SHARK)            ... done
Starting the Coulomb interaction                   ... done (   0.5 sec)
Reading the grid                                   ... done
Mapping shells                                     ... done
Starting the XC term evaluation                    ... done (   0.3 sec)
  promolecular density results
     # of electrons  =    174.001529421
     EX              =   -168.410428734
     EC              =     -6.029879073
     EX+EC           =   -174.440307808
Transforming the Hamiltonian                       ... done (   0.0 sec)
Diagonalizing the Hamiltonian                      ... done (   0.1 sec)
Back transforming the eigenvectors                 ... done (   0.0 sec)
Now organizing SCF variables                       ... done
                      ------------------
                      INITIAL GUESS DONE (   1.3 sec)
                      ------------------
-------------------
DFT GRID GENERATION
-------------------

General Integration Accuracy     IntAcc      ... 4.388
Radial Grid Type                 RadialGrid  ... OptM3 with GC (2021)
Angular Grid (max. ang.)         AngularGrid ... 4 (Lebedev-302)
Angular grid pruning method      GridPruning ... 4 (adaptive)
Weight generation scheme         WeightScheme... Becke
Basis function cutoff            BFCut       ... 1.0000e-11
Integration weight cutoff        WCut        ... 1.0000e-14
Angular grids for H and He will be reduced by one unit
Partially contracted basis set               ... off
Rotationally invariant grid construction     ... off

Total number of grid points                  ...   179155
Total number of batches                      ...     2817
Average number of points per batch           ...       63
Average number of grid points per atom       ...     4977
Time for grid setup =    1.102 sec

--------------------
COSX GRID GENERATION
--------------------

GRIDX 1
-------
General Integration Accuracy     IntAcc      ... 3.816
Radial Grid Type                 RadialGrid  ... OptM3 with GC (2021)
Angular Grid (max. ang.)         AngularGrid ... 1 (Lebedev-50)
Angular grid pruning method      GridPruning ... 4 (adaptive)
Weight generation scheme         WeightScheme... Becke
Basis function cutoff            BFCut       ... 1.0000e-11
Integration weight cutoff        WCut        ... 1.0000e-14
Angular grids for H and He will be reduced by one unit
Partially contracted basis set               ... on
Rotationally invariant grid construction     ... off

Total number of grid points                  ...    22611
Total number of batches                      ...      371
Average number of points per batch           ...       60
Average number of grid points per atom       ...      628
UseSFitting                                  ... on

GRIDX 2
-------
General Integration Accuracy     IntAcc      ... 4.020
Radial Grid Type                 RadialGrid  ... OptM3 with GC (2021)
Angular Grid (max. ang.)         AngularGrid ... 2 (Lebedev-110)
Angular grid pruning method      GridPruning ... 4 (adaptive)
Weight generation scheme         WeightScheme... Becke
Basis function cutoff            BFCut       ... 1.0000e-11
Integration weight cutoff        WCut        ... 1.0000e-14
Angular grids for H and He will be reduced by one unit
Partially contracted basis set               ... on
Rotationally invariant grid construction     ... off

Total number of grid points                  ...    49564
Total number of batches                      ...      788
Average number of points per batch           ...       62
Average number of grid points per atom       ...     1377
UseSFitting                                  ... on

GRIDX 3
-------
General Integration Accuracy     IntAcc      ... 4.338
Radial Grid Type                 RadialGrid  ... OptM3 with GC (2021)
Angular Grid (max. ang.)         AngularGrid ... 3 (Lebedev-194)
Angular grid pruning method      GridPruning ... 4 (adaptive)
Weight generation scheme         WeightScheme... Becke
Basis function cutoff            BFCut       ... 1.0000e-11
Integration weight cutoff        WCut        ... 1.0000e-14
Angular grids for H and He will be reduced by one unit
Partially contracted basis set               ... on
Rotationally invariant grid construction     ... off

Total number of grid points                  ...   109616
Total number of batches                      ...     1732
Average number of points per batch           ...       63
Average number of grid points per atom       ...     3045
UseSFitting                                  ... on

Time for X-Grid setup             =    1.691 sec


--------------------
CPCM SOLVATION MODEL
--------------------
CPCM parameters:
  Epsilon                                         ...     181.5600
  Refrac                                          ...       1.4319
  Rsolv                                           ...       1.3000
  Surface type                                    ... GAUSSIAN VDW
  Epsilon function type                           ...         CPCM
Solvent:                                     ... N-METHYLFORMAMIDE
SMD-CDS solvent descriptors:
  Soln                                       ...    1.4319
  Soln25                                     ...    1.4310
  Sola                                       ...    0.4000
  Solb                                       ...    0.5500
  Solg                                       ...   55.4400
  Solc                                       ...    0.0000
  Solh                                       ...    0.0000
Radii:
 Radius for C  used is    3.4960 Bohr (=   1.8500 Ang.)
 Radius for S  used is    4.7054 Bohr (=   2.4900 Ang.)
 Radius for O  used is    2.9744 Bohr (=   1.5740 Ang.)
 Radius for H  used is    2.2677 Bohr (=   1.2000 Ang.)
Calculating surface                               ...        done! (  0.0s)
GEPOL surface points                              ...         2065
GEPOL Volume                                      ...    2336.5492
GEPOL Surface-area                                ...    1275.8624
Calculating surface distance matrix               ...        done! (  0.0s)
Performing Cholesky decomposition & store         ...        done! (  0.2s)
Overall time for CPCM initialization              ...                 0.2s
--------------
SCF ITERATIONS
--------------
ITER       Energy         Delta-E        Max-DP      RMS-DP      [F,P]     Damp
               ***  Starting incremental Fock matrix formation  ***
  0  -1714.9356121190   0.000000000000 0.02286347  0.00027019  0.1350176 0.7000
  1  -1715.1551833527  -0.219571233617 0.01386524  0.00021807  0.0644422 0.7000
                               ***Turning on DIIS***
  2  -1715.2602888049  -0.105105452229 0.02951372  0.00045915  0.0238394 0.0000
  3  -1715.4364722894  -0.176183484554 0.01047976  0.00015339  0.0299272 0.0000
  4  -1715.4631279633  -0.026655673851 0.00868415  0.00008677  0.0052677 0.0000
  5  -1715.4644817126  -0.001353749346 0.00566348  0.00005710  0.0039077 0.0000
  6  -1715.4648807768  -0.000399064153 0.00387156  0.00004126  0.0012328 0.0000
  7  -1715.4650218542  -0.000141077451 0.00326534  0.00003902  0.0007535 0.0000
               *** Restarting incremental Fock matrix formation ***
                                   *** Resetting DIIS ***
  8  -1715.4650437099  -0.000021855702 0.00134815  0.00002163  0.0005988 0.0000
  9  -1715.4650487663  -0.000005056320 0.00020567  0.00000212  0.0008399 0.0000
 10  -1715.4650521239  -0.000003357668 0.00033760  0.00000419  0.0001658 0.0000
 11  -1715.4650533783  -0.000001254378 0.00013347  0.00000155  0.0000601 0.0000
 12  -1715.4650535467  -0.000000168394 0.00006918  0.00000060  0.0000305 0.0000
 13  -1715.4650535594  -0.000000012696 0.00002783  0.00000030  0.0000128 0.0000
 14  -1715.4650535577   0.000000001678 0.00002171  0.00000033  0.0000034 0.0000
 15  -1715.4650535653  -0.000000007602 0.00005385  0.00000038  0.0000013 0.0000
 16  -1715.4650535617   0.000000003626 0.00003276  0.00000025  0.0000018 0.0000
                            ***DIIS convergence achieved***

               *****************************************************
               *                     SUCCESS                       *
               *           SCF CONVERGED AFTER  17 CYCLES          *
               *****************************************************

Old exchange energy                            =    -52.180261755 Eh
New exchange energy                            =    -52.180234746 Eh
Exchange energy change after final integration =      0.000027009 Eh
Total energy after final integration           =  -1715.465026554 Eh
Final COS-X integration done in                =    47.900 sec

SMD CDS free energy correction energy :                 3.56927     Kcal/mol
Total Energy after SMD CDS correction =             -1715.459338559 Eh

----------------
TOTAL SCF ENERGY
----------------

Total Energy       :        -1715.45933856 Eh          -46680.02177 eV

Components:
Nuclear Repulsion  :         1970.14224692 Eh           53610.29603 eV
Electronic Energy  :        -3685.60158548 Eh         -100290.31780 eV
One Electron Energy:        -6267.79935605 Eh         -170555.49135 eV
Two Electron Energy:         2582.19777056 Eh           70265.17355 eV
Max COSX asymmetry :            0.00000041 Eh               0.00001 eV
CPCM Dielectric    :           -0.03610729 Eh              -0.98253 eV
SMD CDS (Gcds)     :            0.00568799 Eh               0.15478 eV

Virial components:
Potential Energy   :        -3425.80888804 Eh          -93220.99911 eV
Kinetic Energy     :         1710.34954948 Eh           46540.97734 eV
Virial Ratio       :            2.00298757


DFT components:
N(Alpha)           :       86.999995505349 electrons
N(Beta)            :       86.999995505349 electrons
N(Total)           :      173.999991010698 electrons
E(XC)              :     -125.565147798314 Eh       
DFET-embed. en.    :        0.000000000000 Eh       
CPCM Solvation Model Properties:
Surface-charge          :           -0.04776420
Charge-correction       :            0.00016973 Eh               0.00462 eV
Free-energy (cav+disp)  :            0.00568799 Eh               0.15478 eV

---------------
SCF CONVERGENCE
---------------

  Last Energy change         ...   -7.3396e-10  Tolerance :   1.0000e-08
  Last MAX-Density change    ...    0.0000e+00  Tolerance :   1.0000e-07
  Last RMS-Density change    ...    0.0000e+00  Tolerance :   5.0000e-09
  Last DIIS Error            ...    5.8826e-07  Tolerance :   5.0000e-07

             **** THE GBW FILE WAS UPDATED (/burg/berkelbach/users/eav2136/projects/peroxide_dissociation/05_range_separated_functional/wb97x-d-peroxide-nmf/wb97x-d-peroxide-nmf_opt.gbw) ****
             **** DENSITY /burg/berkelbach/users/eav2136/projects/peroxide_dissociation/05_range_separated_functional/wb97x-d-peroxide-nmf/wb97x-d-peroxide-nmf_opt.scfp WAS UPDATED ****
             **** ENERGY FILE WAS UPDATED (/burg/berkelbach/users/eav2136/projects/peroxide_dissociation/05_range_separated_functional/wb97x-d-peroxide-nmf/wb97x-d-peroxide-nmf_opt.en.tmp) ****
----------------------
UHF SPIN CONTAMINATION
----------------------

Warning: in a DFT calculation there is little theoretical justification to 
         calculate <S**2> as in Hartree-Fock theory. We will do it anyways
         but you should keep in mind that the values have only limited relevance

Expectation value of <S**2>     :     0.000000
Ideal value S*(S+1) for S=0.0   :     0.000000
Deviation                       :     0.000000

             **** THE GBW FILE WAS UPDATED (/burg/berkelbach/users/eav2136/projects/peroxide_dissociation/05_range_separated_functional/wb97x-d-peroxide-nmf/wb97x-d-peroxide-nmf_opt.gbw) ****
             **** DENSITY /burg/berkelbach/users/eav2136/projects/peroxide_dissociation/05_range_separated_functional/wb97x-d-peroxide-nmf/wb97x-d-peroxide-nmf_opt.scfp WAS UPDATED ****
----------------
ORBITAL ENERGIES
----------------
                 SPIN UP ORBITALS
  NO   OCC          E(Eh)            E(eV) 
   0   1.0000     -88.958621     -2420.6872 
   1   1.0000     -88.957307     -2420.6514 
   2   1.0000     -19.355838      -526.6991 
   3   1.0000     -19.354929      -526.6744 
   4   1.0000     -19.251136      -523.8500 
   5   1.0000     -19.246368      -523.7203 
   6   1.0000     -10.439639      -284.0770 
   7   1.0000     -10.435650      -283.9685 
   8   1.0000     -10.330789      -281.1150 
   9   1.0000     -10.328677      -281.0576 
  10   1.0000     -10.305989      -280.4402 
  11   1.0000     -10.304262      -280.3932 
  12   1.0000     -10.299606      -280.2665 
  13   1.0000     -10.299580      -280.2658 
  14   1.0000     -10.297655      -280.2134 
  15   1.0000     -10.297298      -280.2037 
  16   1.0000     -10.295710      -280.1605 
  17   1.0000     -10.295225      -280.1473 
  18   1.0000     -10.290183      -280.0101 
  19   1.0000     -10.289855      -280.0012 
  20   1.0000     -10.289650      -279.9956 
  21   1.0000     -10.289476      -279.9909 
  22   1.0000      -8.055761      -219.2084 
  23   1.0000      -8.054439      -219.1724 
  24   1.0000      -6.009645      -163.5308 
  25   1.0000      -6.008347      -163.4954 
  26   1.0000      -6.005523      -163.4186 
  27   1.0000      -6.004239      -163.3836 
  28   1.0000      -6.001158      -163.2998 
  29   1.0000      -5.999783      -163.2624 
  30   1.0000      -1.331991       -36.2453 
  31   1.0000      -1.223167       -33.2841 
  32   1.0000      -1.190601       -32.3979 
  33   1.0000      -1.091408       -29.6987 
  34   1.0000      -1.005414       -27.3587 
  35   1.0000      -1.004189       -27.3254 
  36   1.0000      -0.938429       -25.5359 
  37   1.0000      -0.936569       -25.4853 
  38   1.0000      -0.883354       -24.0373 
  39   1.0000      -0.881309       -23.9816 
  40   1.0000      -0.875328       -23.8189 
  41   1.0000      -0.872892       -23.7526 
  42   1.0000      -0.805411       -21.9163 
  43   1.0000      -0.788801       -21.4644 
  44   1.0000      -0.756943       -20.5975 
  45   1.0000      -0.738088       -20.0844 
  46   1.0000      -0.736464       -20.0402 
  47   1.0000      -0.720291       -19.6001 
  48   1.0000      -0.697295       -18.9744 
  49   1.0000      -0.685064       -18.6415 
  50   1.0000      -0.666603       -18.1392 
  51   1.0000      -0.656213       -17.8565 
  52   1.0000      -0.624574       -16.9955 
  53   1.0000      -0.606135       -16.4938 
  54   1.0000      -0.590633       -16.0719 
  55   1.0000      -0.587266       -15.9803 
  56   1.0000      -0.575075       -15.6486 
  57   1.0000      -0.572072       -15.5669 
  58   1.0000      -0.568154       -15.4603 
  59   1.0000      -0.555970       -15.1287 
  60   1.0000      -0.552262       -15.0278 
  61   1.0000      -0.543841       -14.7987 
  62   1.0000      -0.536426       -14.5969 
  63   1.0000      -0.531431       -14.4610 
  64   1.0000      -0.530986       -14.4489 
  65   1.0000      -0.530451       -14.4343 
  66   1.0000      -0.522617       -14.2211 
  67   1.0000      -0.503917       -13.7123 
  68   1.0000      -0.500021       -13.6063 
  69   1.0000      -0.494656       -13.4603 
  70   1.0000      -0.492155       -13.3922 
  71   1.0000      -0.469560       -12.7774 
  72   1.0000      -0.465711       -12.6726 
  73   1.0000      -0.462244       -12.5783 
  74   1.0000      -0.449546       -12.2328 
  75   1.0000      -0.448315       -12.1993 
  76   1.0000      -0.430059       -11.7025 
  77   1.0000      -0.419880       -11.4255 
  78   1.0000      -0.418698       -11.3934 
  79   1.0000      -0.412571       -11.2266 
  80   1.0000      -0.408015       -11.1027 
  81   1.0000      -0.396108       -10.7787 
  82   1.0000      -0.391545       -10.6545 
  83   1.0000      -0.360014        -9.7965 
  84   1.0000      -0.356742        -9.7075 
  85   1.0000      -0.303949        -8.2709 
  86   1.0000      -0.302377        -8.2281 
  87   0.0000       0.004197         0.1142 
  88   0.0000       0.018521         0.5040 
  89   0.0000       0.051197         1.3931 
  90   0.0000       0.053635         1.4595 
  91   0.0000       0.071451         1.9443 
  92   0.0000       0.102196         2.7809 
  93   0.0000       0.108605         2.9553 
  94   0.0000       0.109230         2.9723 
  95   0.0000       0.119081         3.2404 
  96   0.0000       0.128157         3.4873 
  97   0.0000       0.142357         3.8737 
  98   0.0000       0.155069         4.2196 
  99   0.0000       0.155587         4.2337 
 100   0.0000       0.164894         4.4870 
 101   0.0000       0.166007         4.5173 
 102   0.0000       0.168730         4.5914 
 103   0.0000       0.178567         4.8590 
 104   0.0000       0.186994         5.0884 
 105   0.0000       0.191921         5.2224 
 106   0.0000       0.193148         5.2558 
 107   0.0000       0.194546         5.2939 
 108   0.0000       0.198115         5.3910 
 109   0.0000       0.204190         5.5563 
 110   0.0000       0.207983         5.6595 
 111   0.0000       0.213410         5.8072 
 112   0.0000       0.219830         5.9819 
 113   0.0000       0.222012         6.0413 
 114   0.0000       0.224069         6.0972 
 115   0.0000       0.235809         6.4167 
 116   0.0000       0.238278         6.4839 
 117   0.0000       0.242497         6.5987 
 118   0.0000       0.254665         6.9298 
 119   0.0000       0.262107         7.1323 
 120   0.0000       0.270906         7.3717 
 121   0.0000       0.276571         7.5259 
 122   0.0000       0.282740         7.6937 
 123   0.0000       0.285763         7.7760 
 124   0.0000       0.290115         7.8944 
 125   0.0000       0.296871         8.0783 
 126   0.0000       0.300157         8.1677 
 127   0.0000       0.301768         8.2115 
 128   0.0000       0.305047         8.3008 
 129   0.0000       0.306549         8.3416 
 130   0.0000       0.313311         8.5256 
 131   0.0000       0.316872         8.6225 
 132   0.0000       0.321529         8.7493 
 133   0.0000       0.322888         8.7862 
 134   0.0000       0.327890         8.9223 
 135   0.0000       0.332065         9.0360 
 136   0.0000       0.335346         9.1252 
 137   0.0000       0.337186         9.1753 
 138   0.0000       0.339826         9.2471 
 139   0.0000       0.342132         9.3099 
 140   0.0000       0.349547         9.5117 
 141   0.0000       0.361582         9.8391 
 142   0.0000       0.366516         9.9734 
 143   0.0000       0.369375        10.0512 
 144   0.0000       0.373410        10.1610 
 145   0.0000       0.377822        10.2811 
 146   0.0000       0.382281        10.4024 
 147   0.0000       0.393506        10.7078 
 148   0.0000       0.396519        10.7898 
 149   0.0000       0.403399        10.9770 
 150   0.0000       0.404595        11.0096 
 151   0.0000       0.409430        11.1412 
 152   0.0000       0.415780        11.3140 
 153   0.0000       0.419615        11.4183 
 154   0.0000       0.422448        11.4954 
 155   0.0000       0.426187        11.5971 
 156   0.0000       0.429723        11.6934 
 157   0.0000       0.441592        12.0163 
 158   0.0000       0.444251        12.0887 
 159   0.0000       0.449829        12.2405 
 160   0.0000       0.453779        12.3480 
 161   0.0000       0.457626        12.4526 
 162   0.0000       0.461672        12.5627 
 163   0.0000       0.464702        12.6452 
 164   0.0000       0.469746        12.7824 
 165   0.0000       0.474323        12.9070 
 166   0.0000       0.482756        13.1365 
 167   0.0000       0.484366        13.1803 
 168   0.0000       0.486091        13.2272 
 169   0.0000       0.492267        13.3953 
 170   0.0000       0.494781        13.4637 
 171   0.0000       0.496687        13.5155 
 172   0.0000       0.500208        13.6113 
 173   0.0000       0.505793        13.7633 
 174   0.0000       0.512034        13.9331 
 175   0.0000       0.515044        14.0151 
 176   0.0000       0.521909        14.2019 
 177   0.0000       0.526774        14.3342 
 178   0.0000       0.529469        14.4076 
 179   0.0000       0.537078        14.6146 
 180   0.0000       0.540243        14.7008 
 181   0.0000       0.546745        14.8777 
 182   0.0000       0.550114        14.9694 
 183   0.0000       0.557244        15.1634 
 184   0.0000       0.558779        15.2051 
 185   0.0000       0.561468        15.2783 
 186   0.0000       0.569373        15.4934 
 187   0.0000       0.571351        15.5473 
 188   0.0000       0.576793        15.6953 
 189   0.0000       0.580107        15.7855 
 190   0.0000       0.584155        15.8957 
 191   0.0000       0.585160        15.9230 
 192   0.0000       0.591204        16.0875 
 193   0.0000       0.597746        16.2655 
 194   0.0000       0.605238        16.4694 
 195   0.0000       0.610651        16.6167 
 196   0.0000       0.614451        16.7201 
 197   0.0000       0.623744        16.9729 
 198   0.0000       0.627487        17.0748 
 199   0.0000       0.630740        17.1633 
 200   0.0000       0.635445        17.2913 
 201   0.0000       0.640014        17.4157 
 202   0.0000       0.640819        17.4376 
 203   0.0000       0.654019        17.7968 
 204   0.0000       0.660554        17.9746 
 205   0.0000       0.669104        18.2072 
 206   0.0000       0.677316        18.4307 
 207   0.0000       0.680114        18.5068 
 208   0.0000       0.685526        18.6541 
 209   0.0000       0.692361        18.8401 
 210   0.0000       0.707979        19.2651 
 211   0.0000       0.715670        19.4744 
 212   0.0000       0.717301        19.5187 
 213   0.0000       0.726911        19.7803 
 214   0.0000       0.732542        19.9335 
 215   0.0000       0.736270        20.0349 
 216   0.0000       0.743869        20.2417 
 217   0.0000       0.755980        20.5713 
 218   0.0000       0.760340        20.6899 
 219   0.0000       0.763657        20.7802 
 220   0.0000       0.772999        21.0344 
 221   0.0000       0.779318        21.2063 
 222   0.0000       0.782708        21.2986 
 223   0.0000       0.784630        21.3509 
 224   0.0000       0.789679        21.4883 
 225   0.0000       0.798107        21.7176 
 226   0.0000       0.800220        21.7751 
 227   0.0000       0.806836        21.9551 
 228   0.0000       0.811617        22.0852 
 229   0.0000       0.817359        22.2415 
 230   0.0000       0.826610        22.4932 
 231   0.0000       0.832526        22.6542 
 232   0.0000       0.843703        22.9583 
 233   0.0000       0.847997        23.0752 
 234   0.0000       0.855123        23.2691 
 235   0.0000       0.857560        23.3354 
 236   0.0000       0.860604        23.4182 
 237   0.0000       0.864683        23.5292 
 238   0.0000       0.866556        23.5802 
 239   0.0000       0.881442        23.9853 
 240   0.0000       0.885958        24.1081 
 241   0.0000       0.889334        24.2000 
 242   0.0000       0.891666        24.2635 
 243   0.0000       0.900676        24.5086 
 244   0.0000       0.903576        24.5875 
 245   0.0000       0.912481        24.8299 
 246   0.0000       0.920248        25.0412 
 247   0.0000       0.929019        25.2799 
 248   0.0000       0.942413        25.6444 
 249   0.0000       0.945243        25.7214 
 250   0.0000       0.953094        25.9350 
 251   0.0000       0.957419        26.0527 
 252   0.0000       0.961686        26.1688 
 253   0.0000       0.973389        26.4873 
 254   0.0000       0.977126        26.5889 
 255   0.0000       0.984164        26.7805 
 256   0.0000       0.995530        27.0897 
 257   0.0000       0.996572        27.1181 
 258   0.0000       1.005525        27.3617 
 259   0.0000       1.011947        27.5365 
 260   0.0000       1.013692        27.5840 
 261   0.0000       1.029477        28.0135 
 262   0.0000       1.030447        28.0399 
 263   0.0000       1.040340        28.3091 
 264   0.0000       1.051496        28.6127 
 265   0.0000       1.054567        28.6962 
 266   0.0000       1.060162        28.8485 
 267   0.0000       1.066187        29.0124 
 268   0.0000       1.068831        29.0844 
 269   0.0000       1.087761        29.5995 
 270   0.0000       1.091162        29.6920 
 271   0.0000       1.096781        29.8449 
 272   0.0000       1.104397        30.0522 
 273   0.0000       1.113343        30.2956 
 274   0.0000       1.126261        30.6471 
 275   0.0000       1.131113        30.7791 
 276   0.0000       1.137157        30.9436 
 277   0.0000       1.145535        31.1716 
 278   0.0000       1.162163        31.6241 
 279   0.0000       1.163833        31.6695 
 280   0.0000       1.174822        31.9685 
 281   0.0000       1.178283        32.0627 
 282   0.0000       1.186840        32.2955 
 283   0.0000       1.195265        32.5248 
 284   0.0000       1.214264        33.0418 
 285   0.0000       1.220551        33.2129 
 286   0.0000       1.236466        33.6460 
 287   0.0000       1.249634        34.0043 
 288   0.0000       1.260130        34.2899 
 289   0.0000       1.266481        34.4627 
 290   0.0000       1.281813        34.8799 
 291   0.0000       1.297157        35.2974 
 292   0.0000       1.304208        35.4893 
 293   0.0000       1.312057        35.7029 
 294   0.0000       1.316614        35.8269 
 295   0.0000       1.324175        36.0326 
 296   0.0000       1.327560        36.1247 
 297   0.0000       1.331605        36.2348 
 298   0.0000       1.342055        36.5192 
 299   0.0000       1.351814        36.7847 
 300   0.0000       1.366353        37.1804 
 301   0.0000       1.370179        37.2845 
 302   0.0000       1.382449        37.6183 
 303   0.0000       1.386422        37.7264 
 304   0.0000       1.389446        37.8087 
 305   0.0000       1.392387        37.8888 
 306   0.0000       1.407132        38.2900 
 307   0.0000       1.421358        38.6771 
 308   0.0000       1.424132        38.7526 
 309   0.0000       1.435924        39.0735 
 310   0.0000       1.450604        39.4729 
 311   0.0000       1.462752        39.8035 
 312   0.0000       1.476656        40.1819 
 313   0.0000       1.486567        40.4515 
 314   0.0000       1.498913        40.7875 
 315   0.0000       1.514951        41.2239 
 316   0.0000       1.533000        41.7150 
 317   0.0000       1.537844        41.8469 
 318   0.0000       1.544119        42.0176 
 319   0.0000       1.548919        42.1482 
 320   0.0000       1.555420        42.3251 
 321   0.0000       1.564593        42.5747 
 322   0.0000       1.573823        42.8259 
 323   0.0000       1.580613        43.0107 
 324   0.0000       1.584744        43.1231 
 325   0.0000       1.595415        43.4134 
 326   0.0000       1.600793        43.5598 
 327   0.0000       1.604958        43.6731 
 328   0.0000       1.607333        43.7377 
 329   0.0000       1.608333        43.7650 
 330   0.0000       1.614724        43.9389 
 331   0.0000       1.621798        44.1314 
 332   0.0000       1.624292        44.1992 
 333   0.0000       1.627878        44.2968 
 334   0.0000       1.628955        44.3261 
 335   0.0000       1.634886        44.4875 
 336   0.0000       1.642999        44.7083 
 337   0.0000       1.648545        44.8592 
 338   0.0000       1.651963        44.9522 
 339   0.0000       1.653040        44.9815 
 340   0.0000       1.657961        45.1154 
 341   0.0000       1.664908        45.3045 
 342   0.0000       1.670011        45.4433 
 343   0.0000       1.678977        45.6873 
 344   0.0000       1.681842        45.7653 
 345   0.0000       1.687116        45.9088 
 346   0.0000       1.693913        46.0937 
 347   0.0000       1.696602        46.1669 
 348   0.0000       1.703238        46.3475 
 349   0.0000       1.710854        46.5547 
 350   0.0000       1.717546        46.7368 
 351   0.0000       1.720537        46.8182 
 352   0.0000       1.723104        46.8880 
 353   0.0000       1.735950        47.2376 
 354   0.0000       1.747333        47.5474 
 355   0.0000       1.754843        47.7517 
 356   0.0000       1.761685        47.9379 
 357   0.0000       1.767580        48.0983 
 358   0.0000       1.775321        48.3089 
 359   0.0000       1.781544        48.4783 
 360   0.0000       1.785319        48.5810 
 361   0.0000       1.788851        48.6771 
 362   0.0000       1.792563        48.7781 
 363   0.0000       1.798063        48.9278 
 364   0.0000       1.812029        49.3078 
 365   0.0000       1.816671        49.4341 
 366   0.0000       1.821066        49.5537 
 367   0.0000       1.831307        49.8324 
 368   0.0000       1.841542        50.1109 
 369   0.0000       1.845813        50.2271 
 370   0.0000       1.872127        50.9432 
 371   0.0000       1.877818        51.0980 
 372   0.0000       1.889978        51.4289 
 373   0.0000       1.905512        51.8516 
 374   0.0000       1.907289        51.9000 
 375   0.0000       1.914606        52.0991 
 376   0.0000       1.918718        52.2110 
 377   0.0000       1.921994        52.3001 
 378   0.0000       1.926094        52.4117 
 379   0.0000       1.935719        52.6736 
 380   0.0000       1.939999        52.7901 
 381   0.0000       1.941590        52.8334 
 382   0.0000       1.948552        53.0228 
 383   0.0000       1.951668        53.1076 
 384   0.0000       1.958817        53.3021 
 385   0.0000       1.961500        53.3751 
 386   0.0000       1.969200        53.5847 
 387   0.0000       1.972024        53.6615 
 388   0.0000       1.976706        53.7889 
 389   0.0000       1.981890        53.9300 
 390   0.0000       1.993913        54.2571 
 391   0.0000       1.995921        54.3118 
 392   0.0000       2.015709        54.8502 
 393   0.0000       2.025843        55.1260 
 394   0.0000       2.038300        55.4650 
 395   0.0000       2.056596        55.9628 
 396   0.0000       2.060547        56.0703 
 397   0.0000       2.067284        56.2537 
[...]
      dx2y2   :     0.000000
      dxy     :     0.000000
      f0      :     0.000000  f :     0.000000
      f+1     :    -0.000000
      f-1     :     0.000000
      f+2     :     0.000000
      f-2     :     0.000000
      f+3     :     0.000000
      f-3     :    -0.000000
  7 C s       :    -0.000000  s :    -0.000000
      pz      :     0.000000  p :     0.000000
      px      :     0.000000
      py      :     0.000000
      dz2     :    -0.000000  d :    -0.000000
      dxz     :    -0.000000
      dyz     :    -0.000000
      dx2y2   :    -0.000000
      dxy     :    -0.000000
      f0      :    -0.000000  f :    -0.000000
      f+1     :    -0.000000
      f-1     :     0.000000
      f+2     :    -0.000000
      f-2     :    -0.000000
      f+3     :     0.000000
      f-3     :     0.000000
  8 C s       :    -0.000000  s :    -0.000000
      pz      :    -0.000000  p :    -0.000000
      px      :    -0.000000
      py      :    -0.000000
      dz2     :     0.000000  d :     0.000000
      dxz     :     0.000000
      dyz     :    -0.000000
      dx2y2   :    -0.000000
      dxy     :     0.000000
      f0      :     0.000000  f :    -0.000000
      f+1     :    -0.000000
      f-1     :     0.000000
      f+2     :    -0.000000
      f-2     :    -0.000000
      f+3     :    -0.000000
      f-3     :    -0.000000
  9 O s       :     0.000000  s :     0.000000
      pz      :     0.000000  p :     0.000000
      px      :     0.000000
      py      :     0.000000
      dz2     :     0.000000  d :    -0.000000
      dxz     :    -0.000000
      dyz     :     0.000000
      dx2y2   :    -0.000000
      dxy     :    -0.000000
      f0      :     0.000000  f :    -0.000000
      f+1     :    -0.000000
      f-1     :    -0.000000
      f+2     :    -0.000000
      f-2     :    -0.000000
      f+3     :    -0.000000
      f-3     :    -0.000000
 10 O s       :    -0.000000  s :    -0.000000
      pz      :     0.000000  p :     0.000000
      px      :     0.000000
      py      :     0.000000
      dz2     :     0.000000  d :     0.000000
      dxz     :     0.000000
      dyz     :    -0.000000
      dx2y2   :     0.000000
      dxy     :     0.000000
      f0      :     0.000000  f :     0.000000
      f+1     :     0.000000
      f-1     :    -0.000000
      f+2     :    -0.000000
      f-2     :    -0.000000
      f+3     :     0.000000
      f-3     :     0.000000
 11 O s       :     0.000000  s :     0.000000
      pz      :     0.000000  p :    -0.000000
      px      :    -0.000000
      py      :    -0.000000
      dz2     :     0.000000  d :     0.000000
      dxz     :     0.000000
      dyz     :     0.000000
      dx2y2   :     0.000000
      dxy     :    -0.000000
      f0      :    -0.000000  f :     0.000000
      f+1     :     0.000000
      f-1     :     0.000000
      f+2     :     0.000000
      f-2     :     0.000000
      f+3     :     0.000000
      f-3     :     0.000000
 12 C s       :    -0.000000  s :    -0.000000
      pz      :    -0.000000  p :    -0.000000
      px      :     0.000000
      py      :    -0.000000
      dz2     :     0.000000  d :     0.000000
      dxz     :    -0.000000
      dyz     :     0.000000
      dx2y2   :     0.000000
      dxy     :    -0.000000
      f0      :     0.000000  f :     0.000000
      f+1     :     0.000000
      f-1     :     0.000000
      f+2     :    -0.000000
      f-2     :     0.000000
      f+3     :     0.000000
      f-3     :    -0.000000
 13 C s       :     0.000000  s :     0.000000
      pz      :    -0.000000  p :    -0.000000
      px      :    -0.000000
      py      :     0.000000
      dz2     :     0.000000  d :     0.000000
      dxz     :     0.000000
      dyz     :     0.000000
      dx2y2   :     0.000000
      dxy     :     0.000000
      f0      :     0.000000  f :     0.000000
      f+1     :     0.000000
      f-1     :    -0.000000
      f+2     :    -0.000000
      f-2     :     0.000000
      f+3     :     0.000000
      f-3     :     0.000000
 14 O s       :     0.000000  s :     0.000000
      pz      :     0.000000  p :     0.000000
      px      :    -0.000000
      py      :     0.000000
      dz2     :    -0.000000  d :     0.000000
      dxz     :     0.000000
      dyz     :    -0.000000
      dx2y2   :     0.000000
      dxy     :    -0.000000
      f0      :    -0.000000  f :    -0.000000
      f+1     :    -0.000000
      f-1     :    -0.000000
      f+2     :     0.000000
      f-2     :    -0.000000
      f+3     :     0.000000
      f-3     :    -0.000000
 15 C s       :     0.000000  s :     0.000000
      pz      :     0.000000  p :     0.000000
      px      :     0.000000
      py      :     0.000000
      dz2     :    -0.000000  d :    -0.000000
      dxz     :    -0.000000
      dyz     :    -0.000000
      dx2y2   :    -0.000000
      dxy     :    -0.000000
      f0      :     0.000000  f :    -0.000000
      f+1     :    -0.000000
      f-1     :     0.000000
      f+2     :    -0.000000
      f-2     :     0.000000
      f+3     :     0.000000
      f-3     :    -0.000000
 16 C s       :    -0.000000  s :    -0.000000
      pz      :    -0.000000  p :    -0.000000
      px      :    -0.000000
      py      :     0.000000
      dz2     :     0.000000  d :    -0.000000
      dxz     :     0.000000
      dyz     :     0.000000
      dx2y2   :    -0.000000
      dxy     :    -0.000000
      f0      :     0.000000  f :     0.000000
      f+1     :    -0.000000
      f-1     :     0.000000
      f+2     :     0.000000
      f-2     :     0.000000
      f+3     :     0.000000
      f-3     :     0.000000
 17 C s       :     0.000000  s :     0.000000
      pz      :    -0.000000  p :    -0.000000
      px      :    -0.000000
      py      :     0.000000
      dz2     :    -0.000000  d :    -0.000000
      dxz     :     0.000000
      dyz     :    -0.000000
      dx2y2   :    -0.000000
      dxy     :    -0.000000
      f0      :     0.000000  f :     0.000000
      f+1     :     0.000000
      f-1     :     0.000000
      f+2     :     0.000000
      f-2     :     0.000000
      f+3     :    -0.000000
      f-3     :     0.000000
 18 C s       :     0.000000  s :     0.000000
      pz      :     0.000000  p :     0.000000
      px      :     0.000000
      py      :     0.000000
      dz2     :    -0.000000  d :    -0.000000
      dxz     :    -0.000000
      dyz     :    -0.000000
      dx2y2   :    -0.000000
      dxy     :    -0.000000
      f0      :     0.000000  f :     0.000000
      f+1     :    -0.000000
      f-1     :    -0.000000
      f+2     :     0.000000
      f-2     :     0.000000
      f+3     :    -0.000000
      f-3     :    -0.000000
 19 C s       :    -0.000000  s :    -0.000000
      pz      :     0.000000  p :     0.000000
      px      :     0.000000
      py      :    -0.000000
      dz2     :     0.000000  d :    -0.000000
      dxz     :    -0.000000
      dyz     :    -0.000000
      dx2y2   :    -0.000000
      dxy     :     0.000000
      f0      :     0.000000  f :     0.000000
      f+1     :    -0.000000
      f-1     :     0.000000
      f+2     :     0.000000
      f-2     :     0.000000
      f+3     :     0.000000
      f-3     :     0.000000
 20 S s       :     0.000000  s :     0.000000
      pz      :     0.000000  p :     0.000000
      px      :    -0.000000
      py      :    -0.000000
      dz2     :    -0.000000  d :     0.000000
      dxz     :     0.000000
      dyz     :     0.000000
      dx2y2   :     0.000000
      dxy     :     0.000000
      f0      :    -0.000000  f :    -0.000000
      f+1     :     0.000000
      f-1     :    -0.000000
      f+2     :     0.000000
      f-2     :     0.000000
      f+3     :     0.000000
      f-3     :     0.000000
 21 C s       :    -0.000000  s :    -0.000000
      pz      :    -0.000000  p :     0.000000
      px      :     0.000000
      py      :     0.000000
      dz2     :    -0.000000  d :    -0.000000
      dxz     :    -0.000000
      dyz     :    -0.000000
      dx2y2   :     0.000000
      dxy     :     0.000000
      f0      :    -0.000000  f :    -0.000000
      f+1     :     0.000000
      f-1     :    -0.000000
      f+2     :    -0.000000
      f-2     :     0.000000
      f+3     :    -0.000000
      f-3     :    -0.000000
 22 H s       :    -0.000000  s :    -0.000000
      pz      :     0.000000  p :     0.000000
      px      :     0.000000
      py      :    -0.000000
 23 H s       :     0.000000  s :     0.000000
      pz      :     0.000000  p :    -0.000000
      px      :    -0.000000
      py      :    -0.000000
 24 H s       :    -0.000000  s :    -0.000000
      pz      :     0.000000  p :     0.000000
      px      :     0.000000
      py      :    -0.000000
 25 H s       :     0.000000  s :     0.000000
      pz      :    -0.000000  p :    -0.000000
      px      :    -0.000000
      py      :     0.000000
 26 H s       :     0.000000  s :     0.000000
      pz      :    -0.000000  p :    -0.000000
      px      :    -0.000000
      py      :     0.000000
 27 H s       :     0.000000  s :     0.000000
      pz      :    -0.000000  p :    -0.000000
      px      :    -0.000000
      py      :     0.000000
 28 H s       :     0.000000  s :     0.000000
      pz      :     0.000000  p :    -0.000000
      px      :    -0.000000
      py      :    -0.000000
 29 H s       :     0.000000  s :     0.000000
      pz      :     0.000000  p :     0.000000
      px      :     0.000000
      py      :    -0.000000
 30 H s       :     0.000000  s :     0.000000
      pz      :    -0.000000  p :    -0.000000
      px      :    -0.000000
      py      :     0.000000
 31 H s       :    -0.000000  s :    -0.000000
      pz      :     0.000000  p :     0.000000
      px      :     0.000000
      py      :     0.000000
 32 H s       :    -0.000000  s :    -0.000000
      pz      :    -0.000000  p :    -0.000000
      px      :     0.000000
      py      :    -0.000000
 33 H s       :    -0.000000  s :    -0.000000
      pz      :     0.000000  p :     0.000000
      px      :     0.000000
      py      :     0.000000
 34 H s       :    -0.000000  s :    -0.000000
      pz      :     0.000000  p :     0.000000
      px      :     0.000000
      py      :     0.000000
 35 H s       :     0.000000  s :     0.000000
      pz      :     0.000000  p :     0.000000
      px      :     0.000000
      py      :     0.000000


                      *****************************
                      * MAYER POPULATION ANALYSIS *
                      *****************************

  NA   - Mulliken gross atomic population
  ZA   - Total nuclear charge
  QA   - Mulliken gross atomic charge
  VA   - Mayer's total valence
  BVA  - Mayer's bonded valence
  FA   - Mayer's free valence

  ATOM       NA         ZA         QA         VA         BVA        FA
  0 C      6.4218     6.0000    -0.4218     3.9315     3.9315     0.0000
  1 S     16.0480    16.0000    -0.0480     2.3961     2.3961    -0.0000
  2 C      5.8602     6.0000     0.1398     3.8371     3.8371    -0.0000
  3 C      6.2279     6.0000    -0.2279     3.8422     3.8422     0.0000
  4 C      6.2866     6.0000    -0.2866     3.9973     3.9973     0.0000
  5 C      5.9025     6.0000     0.0975     3.5659     3.5659    -0.0000
  6 C      6.2585     6.0000    -0.2585     4.0193     4.0193     0.0000
  7 C      6.1873     6.0000    -0.1873     3.8394     3.8394    -0.0000
  8 C      5.5827     6.0000     0.4173     4.1949     4.1949     0.0000
  9 O      8.1200     8.0000    -0.1200     1.9988     1.9988    -0.0000
 10 O      8.3881     8.0000    -0.3881     2.1261     2.1261    -0.0000
 11 O      8.1235     8.0000    -0.1235     2.0174     2.0174    -0.0000
 12 C      5.5801     6.0000     0.4199     4.1559     4.1559    -0.0000
 13 C      5.9139     6.0000     0.0861     3.5399     3.5399    -0.0000
 14 O      8.4059     8.0000    -0.4059     2.0943     2.0943    -0.0000
 15 C      6.2369     6.0000    -0.2369     4.0008     4.0008     0.0000
 16 C      6.1897     6.0000    -0.1897     3.8608     3.8608    -0.0000
 17 C      5.8506     6.0000     0.1494     3.8381     3.8381     0.0000
 18 C      6.2526     6.0000    -0.2526     3.8984     3.8984     0.0000
 19 C      6.2552     6.0000    -0.2552     4.0065     4.0065     0.0000
 20 S     16.0416    16.0000    -0.0416     2.4102     2.4102     0.0000
 21 C      6.4215     6.0000    -0.4215     3.9316     3.9316     0.0000
 22 H      0.8105     1.0000     0.1895     0.9570     0.9570     0.0000
 23 H      0.8268     1.0000     0.1732     0.9574     0.9574     0.0000
 24 H      0.8279     1.0000     0.1721     0.9555     0.9555     0.0000
 25 H      0.8117     1.0000     0.1883     0.9593     0.9593     0.0000
 26 H      0.7983     1.0000     0.2017     0.9603     0.9603     0.0000
 27 H      0.8170     1.0000     0.1830     0.9644     0.9644     0.0000
 28 H      0.8258     1.0000     0.1742     0.9657     0.9657     0.0000
 29 H      0.8234     1.0000     0.1766     0.9750     0.9750    -0.0000
 30 H      0.8260     1.0000     0.1740     0.9670     0.9670    -0.0000
 31 H      0.8122     1.0000     0.1878     0.9597     0.9597    -0.0000
 32 H      0.8021     1.0000     0.1979     0.9591     0.9591    -0.0000
 33 H      0.8096     1.0000     0.1904     0.9567     0.9567     0.0000
 34 H      0.8264     1.0000     0.1736     0.9568     0.9568    -0.0000
 35 H      0.8273     1.0000     0.1727     0.9560     0.9560    -0.0000

  Mayer bond orders larger than 0.100000
B(  0-C ,  1-S ) :   1.0613 B(  0-C , 22-H ) :   0.9425 B(  0-C , 23-H ) :   0.9546 
B(  0-C , 24-H ) :   0.9533 B(  1-S ,  2-C ) :   1.1968 B(  2-C ,  3-C ) :   1.2774 
B(  2-C ,  7-C ) :   1.2841 B(  3-C ,  4-C ) :   1.4628 B(  3-C , 25-H ) :   0.9649 
B(  4-C ,  5-C ) :   1.3141 B(  4-C , 26-H ) :   0.9409 B(  5-C ,  6-C ) :   1.3288 
B(  5-C ,  8-C ) :   0.9700 B(  6-C ,  7-C ) :   1.4803 B(  6-C , 27-H ) :   0.9773 
B(  7-C , 28-H ) :   0.9781 B(  8-C ,  9-O ) :   1.0972 B(  8-C , 10-O ) :   2.0405 
B(  9-O , 11-O ) :   0.8191 B( 11-O , 12-C ) :   1.0925 B( 12-C , 13-C ) :   0.9892 
B( 12-C , 14-O ) :   1.9709 B( 13-C , 15-C ) :   1.3018 B( 13-C , 19-C ) :   1.3260 
B( 15-C , 16-C ) :   1.5094 B( 15-C , 29-H ) :   0.9733 B( 16-C , 17-C ) :   1.2679 
B( 16-C , 30-H ) :   0.9792 B( 17-C , 18-C ) :   1.2880 B( 17-C , 20-S ) :   1.2077 
B( 18-C , 19-C ) :   1.4834 B( 18-C , 31-H ) :   0.9600 B( 19-C , 32-H ) :   0.9540 
B( 20-S , 21-C ) :   1.0611 B( 21-C , 33-H ) :   0.9420 B( 21-C , 34-H ) :   0.9541 
B( 21-C , 35-H ) :   0.9538 

-------
TIMINGS
-------

Total SCF time: 0 days 0 hours 3 min 58 sec 

Total time                  ....     238.325 sec
Sum of individual times     ....     235.619 sec  ( 98.9%)

Fock matrix formation       ....     227.188 sec  ( 95.3%)
  Split-RI-J                ....       9.040 sec  (  4.0% of F)
  Chain of spheres X        ....     187.649 sec  ( 82.6% of F)
  XC integration            ....      16.351 sec  (  7.2% of F)
    Basis function eval.    ....       2.787 sec  ( 17.0% of XC)
    Density eval.           ....       7.851 sec  ( 48.0% of XC)
    XC-Functional eval.     ....       0.477 sec  (  2.9% of XC)
    XC-Potential eval.      ....       4.211 sec  ( 25.8% of XC)
Diagonalization             ....       3.413 sec  (  1.4%)
Density matrix formation    ....       0.141 sec  (  0.1%)
Population analysis         ....       0.303 sec  (  0.1%)
Initial guess               ....       0.452 sec  (  0.2%)
Orbital Transformation      ....       0.000 sec  (  0.0%)
Orbital Orthonormalization  ....       0.397 sec  (  0.2%)
DIIS solution               ....       1.405 sec  (  0.6%)
Grid generation             ....       2.717 sec  (  1.1%)

Maximum memory used throughout the entire SCF-calculation: 185.7 MB


-------------------------------------------------------------------------------
                          DFT DISPERSION CORRECTION                            
                                                                               
                              DFTD3 V3.1  Rev 1                                
                              USING zero damping                               
-------------------------------------------------------------------------------
The omegaB97X-D3 functional is recognized. Fit by Chai et al.
Active option DFTDOPT                   ...         3   

molecular C6(AA) [au] = 19260.838121 


            DFT-D V3
 parameters
 s6 scaling factor         :     1.0000 
 rs6 scaling factor        :     1.2810 
 s8 scaling factor         :     1.0000 
 rs8 scaling factor        :     1.0940 
 Damping factor alpha6     :    14.0000 
 Damping factor alpha8     :    16.0000 
 ad hoc parameters k1-k3   :    16.0000     1.3333    -4.0000 

 Edisp/kcal,au: -10.557147949953  -0.016823884356 
 E6   /kcal   :  -4.954319619 
 E8   /kcal   :  -5.602828331 
 % E8         :  53.071420023 

-------------------------   ----------------
Dispersion correction           -0.016823884
-------------------------   ----------------


-------------------------   --------------------
FINAL SINGLE POINT ENERGY     -1715.476645040648
-------------------------   --------------------

                                *** OPTIMIZATION RUN DONE ***

                            ***************************************
                            *     ORCA property calculations      *
                            ***************************************

                                    ---------------------
                                    Active property flags
                                    ---------------------
   (+) Dipole Moment


------------------------------------------------------------------------------
                       ORCA ELECTRIC PROPERTIES CALCULATION
------------------------------------------------------------------------------

Dipole Moment Calculation                       ... on
Quadrupole Moment Calculation                   ... off
Polarizability Calculation                      ... off
GBWName                                         ... /burg/berkelbach/users/eav2136/projects/peroxide_dissociation/05_range_separated_functional/wb97x-d-peroxide-nmf/wb97x-d-peroxide-nmf_opt.gbw
Electron density                                ... /burg/berkelbach/users/eav2136/projects/peroxide_dissociation/05_range_separated_functional/wb97x-d-peroxide-nmf/wb97x-d-peroxide-nmf_opt.scfp
The origin for moment calculation is the CENTER OF MASS  = (-0.246877,  3.433512  5.634127)

-------------
DIPOLE MOMENT
-------------
                                X             Y             Z
Electronic contribution:     -0.80000      -9.04070     -13.64010
Nuclear contribution   :      1.44557      10.88886      17.58344
                        -----------------------------------------
Total Dipole Moment    :      0.64557       1.84816       3.94334
                        -----------------------------------------
Magnitude (a.u.)       :      4.40254
Magnitude (Debye)      :     11.19037



--------------------
Rotational spectrum 
--------------------
 
Rotational constants in cm-1:     0.008882     0.005410     0.003644 
Rotational constants in MHz :   266.280881   162.193879   109.250109 

 Dipole components along the rotational axes: 
x,y,z [a.u.] :     2.453346     3.638356    -0.354730 
x,y,z [Debye]:     6.235911     9.247965    -0.901652 

 

Timings for individual modules:

Sum of individual times         ...     4230.796 sec (=  70.513 min)
GTO integral calculation        ...       20.817 sec (=   0.347 min)   0.5 %
SCF iterations                  ...     3389.978 sec (=  56.500 min)  80.1 %
SCF Gradient evaluation         ...      818.486 sec (=  13.641 min)  19.3 %
Geometry relaxation             ...        1.515 sec (=   0.025 min)   0.0 %
                             ****ORCA TERMINATED NORMALLY****
TOTAL RUN TIME: 0 days 1 hours 10 minutes 53 seconds 658 msec
