Job execution start: Fri Apr 22 11:32:34 EDT 2022
Shared library path: /cm/shared/apps/cuda11.0/toolkit/11.0.3/compat:/burg/berkelbach/users/eav2136/builds/orca/5.0.3/orca:/cm/shared/apps/ucx/1.8.1/lib64:/cm/local/apps/cuda/libs/current/lib64:/cm/shared/apps/cuda11.0/toolkit/11.0.3/targets/x86_64-linux/lib:/cm/shared/apps/cuda11.0/visual-tools/11.0.3/libnvvp:/burg/opt/openmpi-4.1.1_ucx_cuda_11.0.3_support/lib:/cm/shared/apps/slurm/current/lib64/slurm:/cm/shared/apps/slurm/current/lib64
Slurm Job ID is: 1845583
Slurm Job name is: wb97x-d-peroxide-dmf_opt
g067

                                 *****************
                                 * O   R   C   A *
                                 *****************

                                            #,                                       
                                            ###                                      
                                            ####                                     
                                            #####                                    
                                            ######                                   
                                           ########,                                 
                                     ,,################,,,,,                         
                               ,,#################################,,                 
                          ,,##########################################,,             
                       ,#########################################, ''#####,          
                    ,#############################################,,   '####,        
                  ,##################################################,,,,####,       
                ,###########''''           ''''###############################       
              ,#####''   ,,,,##########,,,,          '''####'''          '####       
            ,##' ,,,,###########################,,,                        '##       
           ' ,,###''''                  '''############,,,                           
         ,,##''                                '''############,,,,        ,,,,,,###''
      ,#''                                            '''#######################'''  
     '                                                          ''''####''''         
             ,#######,   #######,   ,#######,      ##                                
            ,#'     '#,  ##    ##  ,#'     '#,    #''#        ######   ,####,        
            ##       ##  ##   ,#'  ##            #'  '#       #        #'  '#        
            ##       ##  #######   ##           ,######,      #####,   #    #        
            '#,     ,#'  ##    ##  '#,     ,#' ,#      #,         ##   #,  ,#        
             '#######'   ##     ##  '#######'  #'      '#     #####' # '####'        



                  #######################################################
                  #                        -***-                        #
                  #          Department of theory and spectroscopy      #
                  #    Directorship and core code : Frank Neese         #
                  #        Max Planck Institute fuer Kohlenforschung    #
                  #                Kaiser Wilhelm Platz 1               #
                  #                 D-45470 Muelheim/Ruhr               #
                  #                      Germany                        #
                  #                                                     #
                  #                  All rights reserved                #
                  #                        -***-                        #
                  #######################################################


                         Program Version 5.0.3 -  RELEASE  -


 With contributions from (in alphabetic order):
   Daniel Aravena         : Magnetic Suceptibility
   Michael Atanasov       : Ab Initio Ligand Field Theory (pilot matlab implementation)
   Alexander A. Auer      : GIAO ZORA, VPT2 properties, NMR spectrum
   Ute Becker             : Parallelization
   Giovanni Bistoni       : ED, misc. LED, open-shell LED, HFLD
   Martin Brehm           : Molecular dynamics
   Dmytro Bykov           : SCF Hessian
   Vijay G. Chilkuri      : MRCI spin determinant printing, contributions to CSF-ICE
   Dipayan Datta          : RHF DLPNO-CCSD density
   Achintya Kumar Dutta   : EOM-CC, STEOM-CC
   Dmitry Ganyushin       : Spin-Orbit,Spin-Spin,Magnetic field MRCI
   Miquel Garcia          : C-PCM and meta-GGA Hessian, CC/C-PCM, Gaussian charge scheme
   Yang Guo               : DLPNO-NEVPT2, F12-NEVPT2, CIM, IAO-localization
   Andreas Hansen         : Spin unrestricted coupled pair/coupled cluster methods
   Benjamin Helmich-Paris : MC-RPA, TRAH-SCF, COSX integrals
   Lee Huntington         : MR-EOM, pCC
   Robert Izsak           : Overlap fitted RIJCOSX, COSX-SCS-MP3, EOM
   Marcus Kettner         : VPT2
   Christian Kollmar      : KDIIS, OOCD, Brueckner-CCSD(T), CCSD density, CASPT2, CASPT2-K
   Simone Kossmann        : Meta GGA functionals, TD-DFT gradient, OOMP2, MP2 Hessian
   Martin Krupicka        : Initial AUTO-CI
   Lucas Lang             : DCDCAS
   Marvin Lechner         : AUTO-CI (C++ implementation), FIC-MRCC
   Dagmar Lenk            : GEPOL surface, SMD
   Dimitrios Liakos       : Extrapolation schemes; Compound Job, initial MDCI parallelization
   Dimitrios Manganas     : Further ROCIS development; embedding schemes
   Dimitrios Pantazis     : SARC Basis sets
   Anastasios Papadopoulos: AUTO-CI, single reference methods and gradients
   Taras Petrenko         : DFT Hessian,TD-DFT gradient, ASA, ECA, R-Raman, ABS, FL, XAS/XES, NRVS
   Peter Pinski           : DLPNO-MP2, DLPNO-MP2 Gradient
   Christoph Reimann      : Effective Core Potentials
   Marius Retegan         : Local ZFS, SOC
   Christoph Riplinger    : Optimizer, TS searches, QM/MM, DLPNO-CCSD(T), (RO)-DLPNO pert. Triples
   Tobias Risthaus        : Range-separated hybrids, TD-DFT gradient, RPA, STAB
   Michael Roemelt        : Original ROCIS implementation
   Masaaki Saitow         : Open-shell DLPNO-CCSD energy and density
   Barbara Sandhoefer     : DKH picture change effects
   Avijit Sen             : IP-ROCIS
   Kantharuban Sivalingam : CASSCF convergence, NEVPT2, FIC-MRCI
   Bernardo de Souza      : ESD, SOC TD-DFT
   Georgi Stoychev        : AutoAux, RI-MP2 NMR, DLPNO-MP2 response
   Willem Van den Heuvel  : Paramagnetic NMR
   Boris Wezisla          : Elementary symmetry handling
   Frank Wennmohs         : Technical directorship


 We gratefully acknowledge several colleagues who have allowed us to
 interface, adapt or use parts of their codes:
   Stefan Grimme, W. Hujo, H. Kruse, P. Pracht,  : VdW corrections, initial TS optimization,
                  C. Bannwarth, S. Ehlert          DFT functionals, gCP, sTDA/sTD-DF
   Ed Valeev, F. Pavosevic, A. Kumar             : LibInt (2-el integral package), F12 methods
   Garnet Chan, S. Sharma, J. Yang, R. Olivares  : DMRG
   Ulf Ekstrom                                   : XCFun DFT Library
   Mihaly Kallay                                 : mrcc  (arbitrary order and MRCC methods)
   Jiri Pittner, Ondrej Demel                    : Mk-CCSD
   Frank Weinhold                                : gennbo (NPA and NBO analysis)
   Christopher J. Cramer and Donald G. Truhlar   : smd solvation model
   Lars Goerigk                                  : TD-DFT with DH, B97 family of functionals
   V. Asgeirsson, H. Jonsson                     : NEB implementation
   FAccTs GmbH                                   : IRC, NEB, NEB-TS, DLPNO-Multilevel, CI-OPT
                                                   MM, QMMM, 2- and 3-layer-ONIOM, Crystal-QMMM,
                                                   LR-CPCM, SF, NACMEs, symmetry and pop. for TD-DFT,
                                                   nearIR, NL-DFT gradient (VV10), updates on ESD,
                                                   ML-optimized integration grids
   S Lehtola, MJT Oliveira, MAL Marques          : LibXC Library
   Liviu Ungur et al                             : ANISO software


 Your calculation uses the libint2 library for the computation of 2-el integrals
 For citations please refer to: http://libint.valeyev.net

 Your ORCA version has been built with support for libXC version: 5.1.0
 For citations please refer to: https://tddft.org/programs/libxc/

 This ORCA versions uses:
   CBLAS   interface :  Fast vector & matrix operations
   LAPACKE interface :  Fast linear algebra routines
   SCALAPACK package :  Parallel linear algebra routines
   Shared memory     :  Shared parallel matrices
   BLAS/LAPACK       :  OpenBLAS 0.3.15  USE64BITINT DYNAMIC_ARCH NO_AFFINITY SkylakeX SINGLE_THREADED
        Core in use  :  SkylakeX
   Copyright (c) 2011-2014, The OpenBLAS Project


Your calculation utilizes the atom-pairwise dispersion correction
with the zero-damping scheme (D30)
Cite in your paper:
S.Grimme, J.Antony, S.Ehrlich and H.Krieg, J.Chem.Phys., 132, (2010), 154104 
   

Your calculation utilizes the SMD solvation module
Please cite in your paper:
A.V. Marenich, C.J. Cramer, D.G. Truhlar J. Phys. Chem. B, 113, (2009), 6378 

XCFun DFT library Copyright 2009-2010 Ulf Ekstrom and contributors.
See http://admol.org/xcfun for more information.
This is free software; see the source code for copying conditions.
There is ABSOLUTELY NO WARRANTY; not even for MERCHANTABILITY or FITNESS FOR A PARTICULAR PURPOSE.
For details see the documentation.
Scientific users of this library should cite U. Ekstrom, L. Visscher, R. Bast, A. J. Thorvaldsen and K. Ruud;
J.Chem.Theor.Comp. 2010, DOI: 10.1021/ct100117s
XCFun Version 0.99 

================================================================================

----- Orbital basis set information -----
Your calculation utilizes the basis: def2-TZVP
   F. Weigend and R. Ahlrichs, Phys. Chem. Chem. Phys. 7, 3297 (2005).

----- AuxJ basis set information -----
Your calculation utilizes the auxiliary basis: def2/J
   F. Weigend, Phys. Chem. Chem. Phys. 8, 1057 (2006).

================================================================================
                                        WARNINGS
                       Please study these warnings very carefully!
================================================================================


WARNING: Geometry Optimization
  ===> : Switching off AutoStart
         For restart on a previous wavefunction, please use MOREAD

INFO   : the flag for use of the SHARK integral package has been found!

================================================================================
                                       INPUT FILE
================================================================================
NAME = /burg/berkelbach/users/eav2136/projects/peroxide_dissociation/05_range_separated_functional/wb97x-d-peroxide-dmf/wb97x-d-peroxide-dmf_opt.inp
|  1> ! UKS wB97X-D3 def2-TZVP TIGHTSCF Opt CPCM PAL8
|  2> %maxcore 5000
|  3> %cpcm
|  4> smd true
|  5> SMDsolvent "DMF"
|  6> end
|  7> * xyz 0 1
|  8>  C -0.07425707479814 6.45007760366319 3.54636897867849
|  9>  S 1.48979584793712 6.08048225687873 2.75598260255209
| 10>  C 1.14936654141856 4.63662227087222 1.83369205968326
| 11>  C -0.09136557109480 4.00305286554088 1.79338352444578
| 12>  C -0.25826928718407 2.84269542505768 1.05936282240646
| 13>  C 0.80050967676942 2.30271389692801 0.33923873907232
| 14>  C 2.02875697338567 2.96040825022008 0.34201900047512
| 15>  C 2.20764771123846 4.10330343094754 1.09121055149825
| 16>  C 0.66254428710301 1.09941809961861 -0.50690159852297
| 17>  O 0.00000000000000 0.00000000000000 0.00000000000000
| 18>  O 1.06713866538631 0.98717129960580 -1.62357736506780
| 19>  O 0.00000000000000 0.00000000000000 1.41527284498687
| 20>  C -1.27388770944479 0.00000000000000 1.91590645535523
| 21>  C -1.22211457253867 0.06642777988277 3.38831477989974
| 22>  O -2.25742922897412 -0.02585779042736 1.23875652957256
| 23>  C -2.41543940252313 -0.12289611375011 4.08595252694906
| 24>  C -2.44195923478874 -0.03437680070658 5.45887710053507
| 25>  C -1.27275068522395 0.25496212808386 6.17298493884884
| 26>  C -0.08177795586127 0.45060655108151 5.47518008098465
| 27>  C -0.05890441770979 0.35440376081578 4.09544628781756
| 28>  S -1.42666733932306 0.34986111841343 7.90788531117200
| 29>  C 0.24316058065577 0.68495422113854 8.46194522255982
| 30>  H 0.10416325535368 7.34607684664392 4.14087383255362
| 31>  H -0.38882275224257 5.64387294862163 4.21002028523424
| 32>  H -0.85323854703301 6.66443357654391 2.81385647784552
| 33>  H -0.93700004363157 4.40513362395569 2.33421606140266
| 34>  H -1.23507439683237 2.37497021944690 1.02749021968162
| 35>  H 2.84544686618639 2.55882587909200 -0.24576673820719
| 36>  H 3.17295340310622 4.59670965109571 1.10248346369500
| 37>  H -3.31769085302541 -0.33900022625314 3.52707230389961
| 38>  H -3.37188538809726 -0.18808364875198 5.99464715790180
| 39>  H 0.83479761044422 0.68252071425859 5.99988733430662
| 40>  H 0.87046926144621 0.51883617942438 3.56602510045047
| 41>  H 0.18454114424639 0.73729393679500 9.54909076814075
| 42>  H 0.60864534290486 1.64029462399245 8.08374213903351
| 43>  H 0.92507514742305 -0.11949528816653 8.18458994466104
| 44> *
| 45> 
| 46>                          ****END OF INPUT****
================================================================================

                       *****************************
                       * Geometry Optimization Run *
                       *****************************

Geometry optimization settings:
Update method            Update   .... BFGS
Choice of coordinates    CoordSys .... Z-matrix Internals
Initial Hessian          InHess   .... Almoef's Model

Convergence Tolerances:
Energy Change            TolE     ....  5.0000e-06 Eh
Max. Gradient            TolMAXG  ....  3.0000e-04 Eh/bohr
RMS Gradient             TolRMSG  ....  1.0000e-04 Eh/bohr
Max. Displacement        TolMAXD  ....  4.0000e-03 bohr
RMS Displacement         TolRMSD  ....  2.0000e-03 bohr
Strict Convergence                ....  False
------------------------------------------------------------------------------
                        ORCA OPTIMIZATION COORDINATE SETUP
------------------------------------------------------------------------------

The optimization will be done in new redundant internal coordinates
Making redundant internal coordinates   ...  (new redundants) done
Evaluating the initial hessian          ...  (Almloef) done
Evaluating the coordinates              ...  done
Calculating the B-matrix                .... done
Calculating the G-matrix                .... done
Diagonalizing the G-matrix              .... done
Small eigenvalue found = 6.813e-04
Small eigenvalue found = 1.847e-03
Small eigenvalue found = 4.132e-03
Small eigenvalue found = 1.197e-02
Small eigenvalue found = 1.299e-02
Small eigenvalue found = 2.647e-02
The first mode is                       ....   64
The number of degrees of freedom        ....  102

    -----------------------------------------------------------------
                    Redundant Internal Coordinates


    -----------------------------------------------------------------
         Definition                    Initial Value    Approx d2E/dq
    -----------------------------------------------------------------
      1. B(S   1,C   0)                  1.7910         0.386175   
      2. B(C   2,S   1)                  1.7468         0.454240   
      3. B(C   3,C   2)                  1.3937         0.616320   
      4. B(C   4,C   3)                  1.3831         0.640745   
      5. B(C   5,C   4)                  1.3897         0.625563   
      6. B(C   6,C   5)                  1.3933         0.617369   
      7. B(C   7,C   2)                  1.3985         0.605696   
      8. B(C   7,C   6)                  1.3782         0.652421   
      9. B(C   8,C   5)                  1.4775         0.453096   
     10. B(O   9,C   8)                  1.3801         0.580356   
     11. B(O  10,C   8)                  1.1930         1.153901   
     12. B(O  11,O   9)                  1.4153         0.456763   
     13. B(C  12,O  11)                  1.3687         0.605075   
     14. B(C  13,C  12)                  1.4748         0.457532   
     15. B(O  14,C  12)                  1.1944         1.148067   
     16. B(C  15,C  13)                  1.3952         0.612988   
     17. B(C  16,C  15)                  1.3760         0.657696   
     18. B(C  17,C  16)                  1.4003         0.601695   
     19. B(C  18,C  17)                  1.3941         0.615367   
     20. B(C  19,C  18)                  1.3833         0.640430   
     21. B(C  19,C  13)                  1.3914         0.621567   
     22. B(S  20,C  17)                  1.7443         0.458402   
     23. B(C  21,S  20)                  1.7910         0.386167   
     24. B(H  22,C   0)                  1.0900         0.360109   
     25. B(H  23,C   0)                  1.0906         0.359342   
     26. B(H  24,C   0)                  1.0906         0.359351   
     27. B(H  25,C   3)                  1.0813         0.371759   
     28. B(H  26,C   4)                  1.0835         0.368828   
     29. B(H  27,C   6)                  1.0834         0.368946   
     30. B(H  28,C   7)                  1.0842         0.367916   
     31. B(H  29,C  15)                  1.0831         0.369344   
     32. B(H  30,C  16)                  1.0842         0.367887   
     33. B(H  31,C  18)                  1.0813         0.371793   
     34. B(H  32,C  19)                  1.0822         0.370628   
     35. B(H  33,C  21)                  1.0900         0.360124   
     36. B(H  34,C  21)                  1.0905         0.359378   
     37. B(H  35,C  21)                  1.0904         0.359511   
     38. A(H  22,C   0,H  23)          108.8436         0.290744   
     39. A(H  22,C   0,H  24)          108.7656         0.290746   
     40. A(S   1,C   0,H  24)          111.5879         0.342618   
     41. A(S   1,C   0,H  23)          111.5859         0.342616   
     42. A(H  23,C   0,H  24)          110.3658         0.290648   
     43. A(S   1,C   0,H  22)          105.5091         0.342738   
     44. A(C   0,S   1,C   2)          103.4970         0.419917   
     45. A(C   3,C   2,C   7)          119.0102         0.431786   
     46. A(S   1,C   2,C   3)          124.3692         0.432719   
     47. A(S   1,C   2,C   7)          116.6202         0.431369   
     48. A(C   2,C   3,C   4)          120.2744         0.436178   
     49. A(C   4,C   3,H  25)          118.8821         0.356807   
     50. A(C   2,C   3,H  25)          120.8433         0.354461   
     51. A(C   5,C   4,H  26)          120.2581         0.354880   
     52. A(C   3,C   4,H  26)          119.1145         0.356327   
     53. A(C   3,C   4,C   5)          120.6005         0.437350   
     54. A(C   4,C   5,C   6)          119.1567         0.434432   
     55. A(C   4,C   5,C   8)          122.8259         0.411072   
     56. A(C   6,C   5,C   8)          117.8994         0.410112   
     57. A(C   7,C   6,H  27)          120.2952         0.357442   
     58. A(C   5,C   6,H  27)          119.2412         0.354107   
     59. A(C   5,C   6,C   7)          120.4618         0.437734   
     60. A(C   6,C   7,H  28)          119.9087         0.357272   
     61. A(C   2,C   7,H  28)          119.6508         0.352797   
     62. A(C   2,C   7,C   6)          120.4398         0.436231   
     63. A(O   9,C   8,O  10)          115.5727         0.473849   
     64. A(C   5,C   8,O  10)          125.5219         0.455899   
     65. A(C   5,C   8,O   9)          118.8999         0.403044   
     66. A(C   8,O   9,O  11)          111.5490         0.398410   
     67. A(O   9,O  11,C  12)          111.4547         0.401345   
     68. A(C  13,C  12,O  14)          126.5770         0.456288   
     69. A(O  11,C  12,O  14)          123.9896         0.477054   
     70. A(O  11,C  12,C  13)          109.4203         0.406723   
     71. A(C  12,C  13,C  19)          123.0966         0.411315   
     72. A(C  15,C  13,C  19)          119.2748         0.433376   
     73. A(C  12,C  13,C  15)          117.5858         0.410303   
     74. A(C  16,C  15,H  29)          120.7715         0.357997   
     75. A(C  13,C  15,H  29)          118.7871         0.353745   
     76. A(C  13,C  15,C  16)          120.4413         0.437808   
     77. A(C  17,C  16,H  30)          119.5691         0.352397   
     78. A(C  15,C  16,H  30)          120.0309         0.357757   
     79. A(C  15,C  16,C  17)          120.3999         0.436343   
     80. A(C  16,C  17,S  20)          116.4104         0.431562   
     81. A(C  18,C  17,S  20)          124.4423         0.433309   
     82. A(C  16,C  17,C  18)          119.1469         0.431152   
     83. A(C  17,C  18,C  19)          120.2393         0.436018   
     84. A(C  19,C  18,H  31)          119.0068         0.356782   
     85. A(C  17,C  18,H  31)          120.7535         0.354374   
     86. A(C  13,C  19,C  18)          120.4962         0.436806   
     87. A(C  18,C  19,H  32)          119.4465         0.356592   
     88. A(C  13,C  19,H  32)          120.0518         0.354788   
     89. A(C  17,S  20,C  21)          103.6272         0.420599   
     90. A(H  34,C  21,H  35)          110.3939         0.290673   
     91. A(H  33,C  21,H  35)          108.8290         0.290768   
     92. A(S  20,C  21,H  35)          111.4899         0.342642   
     93. A(H  33,C  21,H  34)          108.7753         0.290751   
     94. A(S  20,C  21,H  34)          111.6593         0.342620   
     95. A(S  20,C  21,H  33)          105.5095         0.342739   
     96. D(C   2,S   1,C   0,H  22)    179.5234         0.003898   
     97. D(C   2,S   1,C   0,H  23)     61.4721         0.003898   
     98. D(C   2,S   1,C   0,H  24)    -62.5176         0.003898   
     99. D(C   3,C   2,S   1,C   0)      0.0768         0.004531   
    100. D(C   7,C   2,S   1,C   0)    179.8441         0.004531   
    101. D(C   4,C   3,C   2,C   7)      1.8479         0.026266   
    102. D(C   4,C   3,C   2,S   1)   -178.3900         0.026266   
    103. D(H  25,C   3,C   2,C   7)   -178.3097         0.026266   
    104. D(H  25,C   3,C   2,S   1)      1.4524         0.026266   
    105. D(H  26,C   4,C   3,H  25)      1.1825         0.028529   
    106. D(H  26,C   4,C   3,C   2)   -178.9720         0.028529   
    107. D(C   5,C   4,C   3,H  25)    179.3028         0.028529   
    108. D(C   5,C   4,C   3,C   2)     -0.8517         0.028529   
    109. D(C   6,C   5,C   4,H  26)    176.7603         0.027109   
    110. D(C   6,C   5,C   4,C   3)     -1.3385         0.027109   
    111. D(C   8,C   5,C   4,C   3)   -177.3042         0.027109   
    112. D(C   8,C   5,C   4,H  26)      0.7946         0.027109   
    113. D(H  27,C   6,C   5,C   8)     -1.7852         0.026361   
    114. D(H  27,C   6,C   5,C   4)   -177.9495         0.026361   
    115. D(C   7,C   6,C   5,C   8)    178.6982         0.026361   
    116. D(C   7,C   6,C   5,C   4)      2.5338         0.026361   
    117. D(H  28,C   7,C   6,H  27)     -0.7379         0.029652   
    118. D(H  28,C   7,C   6,C   5)    178.7736         0.029652   
    119. D(C   2,C   7,C   6,H  27)    178.9472         0.029652   
    120. D(C   2,C   7,C   6,C   5)     -1.5413         0.029652   
    121. D(H  28,C   7,C   2,C   3)    179.0287         0.025317   
    122. D(H  28,C   7,C   2,S   1)     -0.7516         0.025317   
    123. D(C   6,C   7,C   2,C   3)     -0.6572         0.025317   
    124. D(C   6,C   7,C   2,S   1)    179.5625         0.025317   
    125. D(O   9,C   8,C   5,C   6)    137.7156         0.013991   
    126. D(O   9,C   8,C   5,C   4)    -46.2708         0.013991   
    127. D(O  10,C   8,C   5,C   6)    -43.1749         0.013991   
    128. D(O  10,C   8,C   5,C   4)    132.8388         0.013991   
    129. D(O  11,O   9,C   8,O  10)    157.9229         0.024498   
    130. D(O  11,O   9,C   8,C   5)    -22.8806         0.024498   
    131. D(C  12,O  11,O   9,C   8)    121.0745         0.015467   
    132. D(O  14,C  12,O  11,O   9)      1.4962         0.026770   
    133. D(C  13,C  12,O  11,O   9)   -177.2626         0.026770   
    134. D(C  19,C  13,C  12,O  14)   -167.0428         0.014262   
    135. D(C  19,C  13,C  12,O  11)     11.6757         0.014262   
    136. D(C  15,C  13,C  12,O  14)     10.5550         0.014262   
    137. D(C  15,C  13,C  12,O  11)   -170.7265         0.014262   
    138. D(H  29,C  15,C  13,C  19)    179.5255         0.025966   
    139. D(H  29,C  15,C  13,C  12)      1.8326         0.025966   
    140. D(C  16,C  15,C  13,C  19)     -0.4006         0.025966   
    141. D(C  16,C  15,C  13,C  12)   -178.0935         0.025966   
    142. D(H  30,C  16,C  15,H  29)      0.4119         0.030169   
    143. D(H  30,C  16,C  15,C  13)   -179.6635         0.030169   
    144. D(C  17,C  16,C  15,H  29)   -179.5362         0.030169   
    145. D(C  17,C  16,C  15,C  13)      0.3884         0.030169   
    146. D(S  20,C  17,C  16,H  30)     -0.2280         0.024966   
    147. D(S  20,C  17,C  16,C  15)    179.7203         0.024966   
    148. D(C  18,C  17,C  16,H  30)    179.9814         0.024966   
    149. D(C  18,C  17,C  16,C  15)     -0.0703         0.024966   
    150. D(H  31,C  18,C  17,S  20)     -0.2266         0.026180   
    151. D(H  31,C  18,C  17,C  16)    179.5460         0.026180   
    152. D(C  19,C  18,C  17,S  20)    179.9944         0.026180   
    153. D(C  19,C  18,C  17,C  16)     -0.2330         0.026180   
    154. D(C  13,C  19,C  18,C  17)      0.2195         0.028499   
    155. D(H  32,C  19,C  13,C  15)   -179.0463         0.026742   
    156. D(H  32,C  19,C  13,C  12)     -1.4873         0.026742   
    157. D(C  18,C  19,C  13,C  15)      0.0962         0.026742   
    158. D(C  18,C  19,C  13,C  12)    177.6553         0.026742   
    159. D(H  32,C  19,C  18,H  31)     -0.4157         0.028499   
    160. D(H  32,C  19,C  18,C  17)    179.3672         0.028499   
    161. D(C  13,C  19,C  18,H  31)   -179.5634         0.028499   
    162. D(C  21,S  20,C  17,C  18)     -1.6462         0.004589   
    163. D(C  21,S  20,C  17,C  16)    178.5756         0.004589   
    164. D(H  35,C  21,S  20,C  17)    -61.2749         0.003898   
    165. D(H  34,C  21,S  20,C  17)     62.7331         0.003898   
    166. D(H  33,C  21,S  20,C  17)   -179.2586         0.003898   
    -----------------------------------------------------------------

Number of atoms                         .... 36
Number of degrees of freedom            .... 166

         *************************************************************
         *                GEOMETRY OPTIMIZATION CYCLE   1            *
         *************************************************************
---------------------------------
CARTESIAN COORDINATES (ANGSTROEM)
---------------------------------
  C     -0.074257    6.450078    3.546369
  S      1.489796    6.080482    2.755983
  C      1.149367    4.636622    1.833692
  C     -0.091366    4.003053    1.793384
  C     -0.258269    2.842695    1.059363
  C      0.800510    2.302714    0.339239
  C      2.028757    2.960408    0.342019
  C      2.207648    4.103303    1.091211
  C      0.662544    1.099418   -0.506902
  O      0.000000    0.000000    0.000000
  O      1.067139    0.987171   -1.623577
  O      0.000000    0.000000    1.415273
  C     -1.273888    0.000000    1.915906
  C     -1.222115    0.066428    3.388315
  O     -2.257429   -0.025858    1.238757
  C     -2.415439   -0.122896    4.085953
  C     -2.441959   -0.034377    5.458877
  C     -1.272751    0.254962    6.172985
  C     -0.081778    0.450607    5.475180
  C     -0.058904    0.354404    4.095446
  S     -1.426667    0.349861    7.907885
  C      0.243161    0.684954    8.461945
  H      0.104163    7.346077    4.140874
  H     -0.388823    5.643873    4.210020
  H     -0.853239    6.664434    2.813856
  H     -0.937000    4.405134    2.334216
  H     -1.235074    2.374970    1.027490
  H      2.845447    2.558826   -0.245767
  H      3.172953    4.596710    1.102483
  H     -3.317691   -0.339000    3.527072
  H     -3.371885   -0.188084    5.994647
  H      0.834798    0.682521    5.999887
  H      0.870469    0.518836    3.566025
  H      0.184541    0.737294    9.549091
  H      0.608645    1.640295    8.083742
  H      0.925075   -0.119495    8.184590

----------------------------
CARTESIAN COORDINATES (A.U.)
----------------------------
  NO LB      ZA    FRAG     MASS         X           Y           Z
   0 C     6.0000    0    12.011   -0.140326   12.188880    6.701666
   1 S    16.0000    0    32.060    2.815306   11.490446    5.208052
   2 C     6.0000    0    12.011    2.171988    8.761946    3.465176
   3 C     6.0000    0    12.011   -0.172656    7.564674    3.389004
   4 C     6.0000    0    12.011   -0.488058    5.371916    2.001906
   5 C     6.0000    0    12.011    1.512744    4.351499    0.641068
   6 C     6.0000    0    12.011    3.833795    5.594361    0.646322
   7 C     6.0000    0    12.011    4.171850    7.754120    2.062089
   8 C     6.0000    0    12.011    1.252027    2.077599   -0.957905
   9 O     8.0000    0    15.999    0.000000    0.000000    0.000000
  10 O     8.0000    0    15.999    2.016600    1.865483   -3.068117
  11 O     8.0000    0    15.999    0.000000    0.000000    2.674478
  12 C     6.0000    0    12.011   -2.407299    0.000000    3.620538
  13 C     6.0000    0    12.011   -2.309462    0.125530    6.402987
  14 O     8.0000    0    15.999   -4.265923   -0.048864    2.340911
  15 C     6.0000    0    12.011   -4.564519   -0.232240    7.721331
  16 C     6.0000    0    12.011   -4.614634   -0.064963   10.315783
  17 C     6.0000    0    12.011   -2.405150    0.481809   11.665251
  18 C     6.0000    0    12.011   -0.154538    0.851523   10.346591
  19 C     6.0000    0    12.011   -0.111313    0.669726    7.739272
  20 S    16.0000    0    32.060   -2.696011    0.661142   14.943738
  21 C     6.0000    0    12.011    0.459507    1.294376   15.990759
  22 H     1.0000    0     1.008    0.196840   13.882073    7.825117
  23 H     1.0000    0     1.008   -0.734769   10.665374    7.955785
  24 H     1.0000    0     1.008   -1.612387   12.593954    5.317418
  25 H     1.0000    0     1.008   -1.770673    8.324496    4.411029
  26 H     1.0000    0     1.008   -2.333952    4.488043    1.941675
  27 H     1.0000    0     1.008    5.377115    4.835480   -0.464432
  28 H     1.0000    0     1.008    5.996013    8.686522    2.083392
  29 H     1.0000    0     1.008   -6.269527   -0.640618    6.665201
  30 H     1.0000    0     1.008   -6.371940   -0.355427   11.328241
  31 H     1.0000    0     1.008    1.577539    1.289777   11.338144
  32 H     1.0000    0     1.008    1.644949    0.980458    6.738811
  33 H     1.0000    0     1.008    0.348732    1.393284   18.045166
  34 H     1.0000    0     1.008    1.150173    3.099708   15.276059
  35 H     1.0000    0     1.008    1.748139   -0.225813   15.466634

--------------------------------
INTERNAL COORDINATES (ANGSTROEM)
--------------------------------
 C      0   0   0     0.000000000000     0.00000000     0.00000000
 S      1   0   0     1.790969818017     0.00000000     0.00000000
 C      2   1   0     1.746780929995   103.49703222     0.00000000
 C      3   2   1     1.393718459520   124.36918170     0.07682297
 C      4   3   2     1.383138688329   120.27439762   181.60997218
 C      5   4   3     1.389666017657   120.60050203   359.14829865
 C      6   5   4     1.393255545064   119.15672375   358.66151732
 C      7   6   5     1.378223229504   120.46180539     2.53383799
 C      6   5   4     1.477466986255   122.82593719   182.69580816
 O      9   6   5     1.380084896203   118.89987975   313.72924568
 O      9   6   5     1.193004913083   125.52191253   132.83876530
 O     10   9   6     1.415272844987   111.54903739   337.11941713
 C     12  10   9     1.368730765383   111.45466078   121.07450275
 C     13  12  10     1.474815033092   109.42032141   182.73741157
 O     13  12  10     1.194384598005   123.98959865     1.49620750
 C     14  13  12     1.395193933712   117.58575536   189.27346256
 C     16  14  13     1.376030833609   120.44129595   181.90648253
 C     17  16  14     1.400255566970   120.39992501     0.38844050
 C     18  17  16     1.394139305089   119.14686446   359.92970699
 C     19  18  17     1.383272755320   120.23932774   359.76697987
 S     18  17  16     1.744297983907   116.41043178   179.72028820
 C     21  18  17     1.790976006328   103.62720090   178.57561880
 H      1   2   3     1.089992880213   105.50910599   179.52342869
 H      1   2   3     1.090573504139   111.58592171    61.47211732
 H      1   2   3     1.090566449636   111.58785041   297.48242808
 H      4   3   2     1.081326236832   120.84329981     1.45240478
 H      5   4   3     1.083480942612   119.11451180   181.02803207
 H      7   6   5     1.083394137146   119.24119758   182.05045369
 H      8   7   6     1.084154903776   119.90872766   178.77361985
 H     16  14  13     1.083100074365   118.78711222     1.83264212
 H     17  16  14     1.084176184997   120.03093279   180.33653865
 H     19  18  17     1.081301368500   120.75351253   179.54600540
 H     20  19  18     1.082155372130   119.44648422   179.36717552
 H     22  21  18     1.089982165651   105.50954915   180.74135630
 H     22  21  18     1.090546637769   111.65925285    62.73308778
 H     22  21  18     1.090445981958   111.48990618   298.72507539

---------------------------
INTERNAL COORDINATES (A.U.)
---------------------------
 C      0   0   0     0.000000000000     0.00000000     0.00000000
 S      1   0   0     3.384442470171     0.00000000     0.00000000
 C      2   1   0     3.300937573646   103.49703222     0.00000000
 C      3   2   1     2.633746196283   124.36918170     0.07682297
 C      4   3   2     2.613753326172   120.27439762   181.60997218
 C      5   4   3     2.626088190988   120.60050203   359.14829865
 C      6   5   4     2.632871414738   119.15672375   358.66151732
 C      7   6   5     2.604464455171   120.46180539     2.53383799
 C      6   5   4     2.792007975932   122.82593719   182.69580816
 O      9   6   5     2.607982495384   118.89987975   313.72924568
 O      9   6   5     2.254452562149   125.52191253   132.83876530
 O     10   9   6     2.674478081801   111.54903739   337.11941713
 C     12  10   9     2.586526297646   111.45466078   121.07450275
 C     13  12  10     2.786996510733   109.42032141   182.73741157
 O     13  12  10     2.257059788803   123.98959865     1.49620750
 C     14  13  12     2.636534438423   117.58575536   189.27346256
 C     16  14  13     2.600321427352   120.44129595   181.90648253
 C     17  16  14     2.646099539072   120.39992501     0.38844050
 C     18  17  16     2.634541479154   119.14686446   359.92970699
 C     19  18  17     2.614006676069   120.23932774   359.76697987
 S     18  17  16     3.296245485535   116.41043178   179.72028820
 C     21  18  17     3.384454164384   103.62720090   178.57561880
 H      1   2   3     2.059788031526   105.50910599   179.52342869
 H      1   2   3     2.060885251733   111.58592171    61.47211732
 H      1   2   3     2.060871920655   111.58785041   297.48242808
 H      4   3   2     2.043410449036   120.84329981     1.45240478
 H      5   4   3     2.047482252859   119.11451180   181.02803207
 H      7   6   5     2.047318214302   119.24119758   182.05045369
 H      8   7   6     2.048755854885   119.90872766   178.77361985
 H     16  14  13     2.046762516180   118.78711222     1.83264212
 H     17  16  14     2.048796070563   120.03093279   180.33653865
 H     19  18  17     2.043363454698   120.75351253   179.54600540
 H     20  19  18     2.044977287678   119.44648422   179.36717552
 H     22  21  18     2.059767783938   105.50954915   180.74135630
 H     22  21  18     2.060834481653   111.65925285    62.73308778
 H     22  21  18     2.060644269736   111.48990618   298.72507539

---------------------
BASIS SET INFORMATION
---------------------
There are 4 groups of distinct atoms

 Group   1 Type C   : 11s6p2d1f contracted to 5s3p2d1f pattern {62111/411/11/1}
 Group   2 Type S   : 14s9p3d1f contracted to 5s5p2d1f pattern {73211/51111/21/1}
 Group   3 Type O   : 11s6p2d1f contracted to 5s3p2d1f pattern {62111/411/11/1}
 Group   4 Type H   : 5s1p contracted to 3s1p pattern {311/1}

Atom   0C    basis set group =>   1
Atom   1S    basis set group =>   2
Atom   2C    basis set group =>   1
Atom   3C    basis set group =>   1
Atom   4C    basis set group =>   1
Atom   5C    basis set group =>   1
Atom   6C    basis set group =>   1
Atom   7C    basis set group =>   1
Atom   8C    basis set group =>   1
Atom   9O    basis set group =>   3
Atom  10O    basis set group =>   3
Atom  11O    basis set group =>   3
Atom  12C    basis set group =>   1
Atom  13C    basis set group =>   1
Atom  14O    basis set group =>   3
Atom  15C    basis set group =>   1
Atom  16C    basis set group =>   1
Atom  17C    basis set group =>   1
Atom  18C    basis set group =>   1
Atom  19C    basis set group =>   1
Atom  20S    basis set group =>   2
Atom  21C    basis set group =>   1
Atom  22H    basis set group =>   4
Atom  23H    basis set group =>   4
Atom  24H    basis set group =>   4
Atom  25H    basis set group =>   4
Atom  26H    basis set group =>   4
Atom  27H    basis set group =>   4
Atom  28H    basis set group =>   4
Atom  29H    basis set group =>   4
Atom  30H    basis set group =>   4
Atom  31H    basis set group =>   4
Atom  32H    basis set group =>   4
Atom  33H    basis set group =>   4
Atom  34H    basis set group =>   4
Atom  35H    basis set group =>   4
---------------------------------
AUXILIARY/J BASIS SET INFORMATION
---------------------------------
There are 4 groups of distinct atoms

 Group   1 Type C   : 12s5p4d2f1g contracted to 6s4p3d1f1g pattern {711111/2111/211/2/1}
 Group   2 Type S   : 14s5p5d2f1g contracted to 8s4p3d1f1g pattern {71111111/2111/311/2/1}
 Group   3 Type O   : 12s5p4d2f1g contracted to 6s4p3d1f1g pattern {711111/2111/211/2/1}
 Group   4 Type H   : 5s2p1d contracted to 3s1p1d pattern {311/2/1}

Atom   0C    basis set group =>   1
Atom   1S    basis set group =>   2
Atom   2C    basis set group =>   1
Atom   3C    basis set group =>   1
Atom   4C    basis set group =>   1
Atom   5C    basis set group =>   1
Atom   6C    basis set group =>   1
Atom   7C    basis set group =>   1
Atom   8C    basis set group =>   1
Atom   9O    basis set group =>   3
Atom  10O    basis set group =>   3
Atom  11O    basis set group =>   3
Atom  12C    basis set group =>   1
Atom  13C    basis set group =>   1
Atom  14O    basis set group =>   3
Atom  15C    basis set group =>   1
Atom  16C    basis set group =>   1
Atom  17C    basis set group =>   1
Atom  18C    basis set group =>   1
Atom  19C    basis set group =>   1
Atom  20S    basis set group =>   2
Atom  21C    basis set group =>   1
Atom  22H    basis set group =>   4
Atom  23H    basis set group =>   4
Atom  24H    basis set group =>   4
Atom  25H    basis set group =>   4
Atom  26H    basis set group =>   4
Atom  27H    basis set group =>   4
Atom  28H    basis set group =>   4
Atom  29H    basis set group =>   4
Atom  30H    basis set group =>   4
Atom  31H    basis set group =>   4
Atom  32H    basis set group =>   4
Atom  33H    basis set group =>   4
Atom  34H    basis set group =>   4
Atom  35H    basis set group =>   4


           ************************************************************
           *        Program running with 8 parallel MPI-processes     *
           *              working on a common directory               *
           ************************************************************
------------------------------------------------------------------------------
                           ORCA GTO INTEGRAL CALCULATION
                           -- RI-GTO INTEGRALS CHOSEN --
------------------------------------------------------------------------------
------------------------------------------------------------------------------
                   ___                                                        
                  /   \      - P O W E R E D   B Y -                         
                 /     \                                                     
                 |  |  |   _    _      __       _____    __    __             
                 |  |  |  | |  | |    /  \     |  _  \  |  |  /  |          
                  \  \/   | |  | |   /    \    | | | |  |  | /  /          
                 / \  \   | |__| |  /  /\  \   | |_| |  |  |/  /          
                |  |  |   |  __  | /  /__\  \  |    /   |      \           
                |  |  |   | |  | | |   __   |  |    \   |  |\   \          
                \     /   | |  | | |  |  |  |  | |\  \  |  | \   \       
                 \___/    |_|  |_| |__|  |__|  |_| \__\ |__|  \__/        
                                                                              
                      - O R C A' S   B I G   F R I E N D -                    
                                      &                                       
                       - I N T E G R A L  F E E D E R -                       
                                                                              
 v1 FN, 2020, v2 2021                                                         
------------------------------------------------------------------------------


Reading SHARK input file /burg/berkelbach/users/eav2136/projects/peroxide_dissociation/05_range_separated_functional/wb97x-d-peroxide-dmf/wb97x-d-peroxide-dmf_opt.SHARKINP.tmp ... ok
----------------------
SHARK INTEGRAL PACKAGE
----------------------

Number of atoms                             ...     36
Number of basis functions                   ...    778
Number of shells                            ...    302
Maximum angular momentum                    ...      3
Integral batch strategy                     ... SHARK/LIBINT Hybrid
RI-J (if used) integral strategy            ... SPLIT-RIJ (Revised 2003 algorithm where possible)
Printlevel                                  ...      1
Contraction scheme used                     ... SEGMENTED contraction
Coulomb Range Separation                    ... NOT USED
Exchange Range Separation                   ... Long Range
   Mu parameter                             ...  0.250000
   Scaling (regular/separated)              ...  0.195728  0.804272
Finite Nucleus Model                        ... NOT USED
Auxiliary Coulomb fitting basis             ... AVAILABLE
   # of basis functions in Aux-J            ...   1236
   # of shells in Aux-J                     ...    404
   Maximum angular momentum in Aux-J        ...      4
Auxiliary J/K fitting basis                 ... NOT available
Auxiliary Correlation fitting basis         ... NOT available
Auxiliary 'external' fitting basis          ... NOT available
Integral threshold                          ...     2.500000e-11
Primitive cut-off                           ...     2.500000e-12
Primitive pair pre-selection threshold      ...     2.500000e-12

Calculating pre-screening integrals         ... done (  0.1 sec) Dimension = 302
Organizing shell pair data                  ... done (  0.3 sec)
Shell pair information
Total number of shell pairs                 ...     45753
Shell pairs after pre-screening             ...     30707
Total number of primitive shell pairs       ...    145545
Primitive shell pairs kept                  ...     63502
          la=0 lb=0:   7523 shell pairs
          la=1 lb=0:   8937 shell pairs
          la=1 lb=1:   2674 shell pairs
          la=2 lb=0:   4331 shell pairs
          la=2 lb=1:   2602 shell pairs
          la=2 lb=2:    662 shell pairs
          la=3 lb=0:   2019 shell pairs
          la=3 lb=1:   1229 shell pairs
          la=3 lb=2:    589 shell pairs
          la=3 lb=3:    141 shell pairs

Calculating one electron integrals          ... done (  0.0 sec)
Calculating RI/J V-Matrix + Cholesky decomp.... done (  0.2 sec)
Calculating Nuclear repulsion               ... done (  0.0 sec) ENN=   1970.142246923818 Eh

SHARK setup successfully completed in   1.0 seconds

Maximum memory used throughout the entire GTOINT-calculation: 49.0 MB


           ************************************************************
           *        Program running with 8 parallel MPI-processes     *
           *              working on a common directory               *
           ************************************************************
-------------------------------------------------------------------------------
                                 ORCA SCF
-------------------------------------------------------------------------------

------------
SCF SETTINGS
------------
Hamiltonian:
 Density Functional     Method          .... DFT(GTOs)
 Exchange Functional    Exchange        .... WB97X-D3
 Correlation Functional Correlation     .... WB97X-D3
 Gradients option       PostSCFGGA      .... off
 Hybrid DFT is turned on
   Fraction HF Exchange ScalHFX         ....  0.195728
   Scaling of DF-GGA-X  ScalDFX         ....  0.000000
   Scaling of DF-GGA-C  ScalDFC         ....  1.000000
   Scaling of DF-LDA-C  ScalLDAC        ....  1.000000
   Perturbative correction              ....  0.000000
   Density functional embedding theory  .... OFF
 Long-range corrected/Screened/Range-Separated Hybrid DFT is turned on
   Amount of maximum screened exact exchange              ....  0.804272
   Range separation parameter mu (erf(mu*r12)/r12)        ....  0.250000
 RI-approximation to the Coulomb term is turned on
   Number of AuxJ basis functions       .... 1236
   RIJ-COSX (HFX calculated with COS-X)).... on


General Settings:
 Integral files         IntName         .... /burg/berkelbach/users/eav2136/projects/peroxide_dissociation/05_range_separated_functional/wb97x-d-peroxide-dmf/wb97x-d-peroxide-dmf_opt
 Hartree-Fock type      HFTyp           .... UHF
 Total Charge           Charge          ....    0
 Multiplicity           Mult            ....    1
 Number of Electrons    NEL             ....  174
 Basis Dimension        Dim             ....  778
 Nuclear Repulsion      ENuc            ....   1970.1422469238 Eh

Convergence Acceleration:
 DIIS                   CNVDIIS         .... on
   Start iteration      DIISMaxIt       ....    12
   Startup error        DIISStart       ....  0.200000
   # of expansion vecs  DIISMaxEq       ....     5
   Bias factor          DIISBfac        ....   1.050
   Max. coefficient     DIISMaxC        ....  10.000
 Trust-Rad. Augm. Hess. CNVTRAH         .... auto
   Auto Start mean grad. ratio tolernc. ....  1.125000
   Auto Start start iteration           ....    20
   Auto Start num. interpolation iter.  ....    10
   Max. Number of Micro iterations      ....    16
   Max. Number of Macro iterations      .... Maxiter - #DIIS iter
   Number of Davidson start vectors     ....     2
   Converg. threshold I  (grad. norm)   ....   1.000e-05
   Converg. threshold II (energy diff.) ....   1.000e-08
   Grad. Scal. Fac. for Micro threshold ....   0.100
   Minimum threshold for Micro iter.    ....   0.010
   NR start threshold (gradient norm)   ....   0.001
   Initial trust radius                 ....   0.400
   Minimum AH scaling param. (alpha)    ....   1.000
   Maximum AH scaling param. (alpha)    .... 1000.000
   Orbital update algorithm             .... Taylor
   White noise on init. David. guess    .... on
   Maximum white noise                  ....   0.010
   Quad. conv. algorithm                .... NR
 SOSCF                  CNVSOSCF        .... off
 Level Shifting         CNVShift        .... on
   Level shift para.    LevelShift      ....    0.2500
   Turn off err/grad.   ShiftErr        ....    0.0010
 Zerner damping         CNVZerner       .... off
 Static damping         CNVDamp         .... on
   Fraction old density DampFac         ....    0.7000
   Max. Damping (<1)    DampMax         ....    0.9800
   Min. Damping (>=0)   DampMin         ....    0.0000
   Turn off err/grad.   DampErr         ....    0.1000
 Fernandez-Rico         CNVRico         .... off

SCF Procedure:
 Maximum # iterations   MaxIter         ....   125
 SCF integral mode      SCFMode         .... Direct
   Integral package                     .... SHARK and LIBINT hybrid scheme
 Reset frequency        DirectResetFreq ....    20
 Integral Threshold     Thresh          ....  2.500e-11 Eh
 Primitive CutOff       TCut            ....  2.500e-12 Eh

Convergence Tolerance:
 Convergence Check Mode ConvCheckMode   .... Total+1el-Energy
 Convergence forced     ConvForced      .... 0
 Energy Change          TolE            ....  1.000e-08 Eh
 1-El. energy change                    ....  1.000e-05 Eh
 DIIS Error             TolErr          ....  5.000e-07


Diagonalization of the overlap matrix:
Smallest eigenvalue                        ... 6.410e-06
Time for diagonalization                   ...    0.090 sec
Threshold for overlap eigenvalues          ... 1.000e-08
Number of eigenvalues below threshold      ... 0
Time for construction of square roots      ...    0.054 sec
Total time needed                          ...    0.148 sec

Time for model grid setup =    0.259 sec

------------------------------
INITIAL GUESS: MODEL POTENTIAL
------------------------------
Loading Hartree-Fock densities                     ... done
Calculating cut-offs                               ... done
Initializing the effective Hamiltonian             ... done
Setting up the integral package (SHARK)            ... done
Starting the Coulomb interaction                   ... done (   0.4 sec)
Reading the grid                                   ... done
Mapping shells                                     ... done
Starting the XC term evaluation                    ... done (   0.3 sec)
  promolecular density results
     # of electrons  =    174.001529421
     EX              =   -168.410428734
     EC              =     -6.029879073
     EX+EC           =   -174.440307808
Transforming the Hamiltonian                       ... done (   0.0 sec)
Diagonalizing the Hamiltonian                      ... done (   0.1 sec)
Back transforming the eigenvectors                 ... done (   0.0 sec)
Now organizing SCF variables                       ... done
                      ------------------
                      INITIAL GUESS DONE (   1.2 sec)
                      ------------------
-------------------
DFT GRID GENERATION
-------------------

General Integration Accuracy     IntAcc      ... 4.388
Radial Grid Type                 RadialGrid  ... OptM3 with GC (2021)
Angular Grid (max. ang.)         AngularGrid ... 4 (Lebedev-302)
Angular grid pruning method      GridPruning ... 4 (adaptive)
Weight generation scheme         WeightScheme... Becke
Basis function cutoff            BFCut       ... 1.0000e-11
Integration weight cutoff        WCut        ... 1.0000e-14
Angular grids for H and He will be reduced by one unit
Partially contracted basis set               ... off
Rotationally invariant grid construction     ... off

Total number of grid points                  ...   179155
Total number of batches                      ...     2817
Average number of points per batch           ...       63
Average number of grid points per atom       ...     4977
Time for grid setup =    1.068 sec

--------------------
COSX GRID GENERATION
--------------------

GRIDX 1
-------
General Integration Accuracy     IntAcc      ... 3.816
Radial Grid Type                 RadialGrid  ... OptM3 with GC (2021)
Angular Grid (max. ang.)         AngularGrid ... 1 (Lebedev-50)
Angular grid pruning method      GridPruning ... 4 (adaptive)
Weight generation scheme         WeightScheme... Becke
Basis function cutoff            BFCut       ... 1.0000e-11
Integration weight cutoff        WCut        ... 1.0000e-14
Angular grids for H and He will be reduced by one unit
Partially contracted basis set               ... on
Rotationally invariant grid construction     ... off

Total number of grid points                  ...    22611
Total number of batches                      ...      371
Average number of points per batch           ...       60
Average number of grid points per atom       ...      628
UseSFitting                                  ... on

GRIDX 2
-------
General Integration Accuracy     IntAcc      ... 4.020
Radial Grid Type                 RadialGrid  ... OptM3 with GC (2021)
Angular Grid (max. ang.)         AngularGrid ... 2 (Lebedev-110)
Angular grid pruning method      GridPruning ... 4 (adaptive)
Weight generation scheme         WeightScheme... Becke
Basis function cutoff            BFCut       ... 1.0000e-11
Integration weight cutoff        WCut        ... 1.0000e-14
Angular grids for H and He will be reduced by one unit
Partially contracted basis set               ... on
Rotationally invariant grid construction     ... off

Total number of grid points                  ...    49564
Total number of batches                      ...      788
Average number of points per batch           ...       62
Average number of grid points per atom       ...     1377
UseSFitting                                  ... on

GRIDX 3
-------
General Integration Accuracy     IntAcc      ... 4.338
Radial Grid Type                 RadialGrid  ... OptM3 with GC (2021)
Angular Grid (max. ang.)         AngularGrid ... 3 (Lebedev-194)
Angular grid pruning method      GridPruning ... 4 (adaptive)
Weight generation scheme         WeightScheme... Becke
Basis function cutoff            BFCut       ... 1.0000e-11
Integration weight cutoff        WCut        ... 1.0000e-14
Angular grids for H and He will be reduced by one unit
Partially contracted basis set               ... on
Rotationally invariant grid construction     ... off

Total number of grid points                  ...   109616
Total number of batches                      ...     1732
Average number of points per batch           ...       63
Average number of grid points per atom       ...     3045
UseSFitting                                  ... on

Time for X-Grid setup             =    1.571 sec


--------------------
CPCM SOLVATION MODEL
--------------------
CPCM parameters:
  Epsilon                                         ...      37.2190
  Refrac                                          ...       1.4305
  Rsolv                                           ...       1.3000
  Surface type                                    ... GAUSSIAN VDW
  Epsilon function type                           ...         CPCM
Solvent:                                     ... DMF
SMD-CDS solvent descriptors:
  Soln                                       ...    1.4305
  Soln25                                     ...    1.4280
  Sola                                       ...    0.0000
  Solb                                       ...    0.7400
  Solg                                       ...   49.5600
  Solc                                       ...    0.0000
  Solh                                       ...    0.0000
Radii:
 Radius for C  used is    3.4960 Bohr (=   1.8500 Ang.)
 Radius for S  used is    4.7054 Bohr (=   2.4900 Ang.)
 Radius for O  used is    4.3350 Bohr (=   2.2940 Ang.)
 Radius for H  used is    2.2677 Bohr (=   1.2000 Ang.)
Calculating surface                               ...        done! (  0.0s)
GEPOL surface points                              ...         1874
GEPOL Volume                                      ...    2715.5404
GEPOL Surface-area                                ...    1360.8946
Calculating surface distance matrix               ...        done! (  0.0s)
Performing Cholesky decomposition & store         ...        done! (  0.2s)
Overall time for CPCM initialization              ...                 0.2s
--------------
SCF ITERATIONS
--------------
ITER       Energy         Delta-E        Max-DP      RMS-DP      [F,P]     Damp
               ***  Starting incremental Fock matrix formation  ***
  0  -1714.9171768647   0.000000000000 0.02381119  0.00029618  0.1374531 0.7000
  1  -1715.1425604951  -0.225383630391 0.02084995  0.00023771  0.0644214 0.7000
                               ***Turning on DIIS***
  2  -1715.2486826645  -0.106122169452 0.03376649  0.00048148  0.0230800 0.0000
  3  -1715.4284686602  -0.179785995692 0.01614731  0.00016809  0.0296082 0.0000
  4  -1715.4551301247  -0.026661464435 0.00848827  0.00008701  0.0061239 0.0000
  5  -1715.4566569622  -0.001526837576 0.00577283  0.00005915  0.0040262 0.0000
  6  -1715.4570796205  -0.000422658233 0.00386778  0.00004175  0.0012609 0.0000
  7  -1715.4572294602  -0.000149839711 0.00323808  0.00003952  0.0007709 0.0000
               *** Restarting incremental Fock matrix formation ***
                                   *** Resetting DIIS ***
  8  -1715.4572565180  -0.000027057839 0.00136309  0.00002171  0.0008315 0.0000
  9  -1715.4572609676  -0.000004449586 0.00021548  0.00000179  0.0012055 0.0000
 10  -1715.4572663465  -0.000005378855 0.00033666  0.00000423  0.0001167 0.0000
 11  -1715.4572679600  -0.000001613510 0.00017577  0.00000218  0.0000692 0.0000
 12  -1715.4572682519  -0.000000291877 0.00005331  0.00000065  0.0000502 0.0000
 13  -1715.4572682783  -0.000000026489 0.00002230  0.00000031  0.0000161 0.0000
                 **** Energy Check signals convergence ****

               *****************************************************
               *                     SUCCESS                       *
               *           SCF CONVERGED AFTER  14 CYCLES          *
               *****************************************************

Old exchange energy                            =    -52.178563898 Eh
New exchange energy                            =    -52.178536698 Eh
Exchange energy change after final integration =      0.000027199 Eh
Total energy after final integration           =  -1715.457241072 Eh
Final COS-X integration done in                =    47.909 sec

SMD CDS free energy correction energy :                -5.95988     Kcal/mol
Total Energy after SMD CDS correction =             -1715.466738748 Eh

----------------
TOTAL SCF ENERGY
----------------

Total Energy       :        -1715.46673875 Eh          -46680.22314 eV

Components:
Nuclear Repulsion  :         1970.14224692 Eh           53610.29603 eV
Electronic Energy  :        -3685.60898567 Eh         -100290.51917 eV
One Electron Energy:        -6268.00781234 Eh         -170561.16374 eV
Two Electron Energy:         2582.39882667 Eh           70270.64456 eV
Max COSX asymmetry :            0.00000039 Eh               0.00001 eV
CPCM Dielectric    :           -0.02568966 Eh              -0.69905 eV
SMD CDS (Gcds)     :           -0.00949768 Eh              -0.25844 eV

Virial components:
Potential Energy   :        -3425.82680984 Eh          -93221.48678 eV
Kinetic Energy     :         1710.36007109 Eh           46541.26365 eV
Virial Ratio       :            2.00298573


DFT components:
N(Alpha)           :       86.999994605601 electrons
N(Beta)            :       86.999994605601 electrons
N(Total)           :      173.999989211201 electrons
E(XC)              :     -125.562882912627 Eh       
DFET-embed. en.    :        0.000000000000 Eh       
CPCM Solvation Model Properties:
Surface-charge          :           -0.03179378
Charge-correction       :            0.00037948 Eh               0.01033 eV
Free-energy (cav+disp)  :           -0.00949768 Eh              -0.25844 eV

---------------
SCF CONVERGENCE
---------------

  Last Energy change         ...    6.5208e-09  Tolerance :   1.0000e-08
  Last MAX-Density change    ...    0.0000e+00  Tolerance :   1.0000e-07
  Last RMS-Density change    ...    0.0000e+00  Tolerance :   5.0000e-09
  Last DIIS Error            ...    4.7441e-06  Tolerance :   5.0000e-07

             **** THE GBW FILE WAS UPDATED (/burg/berkelbach/users/eav2136/projects/peroxide_dissociation/05_range_separated_functional/wb97x-d-peroxide-dmf/wb97x-d-peroxide-dmf_opt.gbw) ****
             **** DENSITY /burg/berkelbach/users/eav2136/projects/peroxide_dissociation/05_range_separated_functional/wb97x-d-peroxide-dmf/wb97x-d-peroxide-dmf_opt.scfp WAS UPDATED ****
             **** ENERGY FILE WAS UPDATED (/burg/berkelbach/users/eav2136/projects/peroxide_dissociation/05_range_separated_functional/wb97x-d-peroxide-dmf/wb97x-d-peroxide-dmf_opt.en.tmp) ****
----------------------
UHF SPIN CONTAMINATION
----------------------

Warning: in a DFT calculation there is little theoretical justification to 
         calculate <S**2> as in Hartree-Fock theory. We will do it anyways
         but you should keep in mind that the values have only limited relevance

Expectation value of <S**2>     :    -0.000000
Ideal value S*(S+1) for S=0.0   :     0.000000
Deviation                       :    -0.000000

             **** THE GBW FILE WAS UPDATED (/burg/berkelbach/users/eav2136/projects/peroxide_dissociation/05_range_separated_functional/wb97x-d-peroxide-dmf/wb97x-d-peroxide-dmf_opt.gbw) ****
             **** DENSITY /burg/berkelbach/users/eav2136/projects/peroxide_dissociation/05_range_separated_functional/wb97x-d-peroxide-dmf/wb97x-d-peroxide-dmf_opt.scfp WAS UPDATED ****
----------------
ORBITAL ENERGIES
----------------
                 SPIN UP ORBITALS
  NO   OCC          E(Eh)            E(eV) 
   0   1.0000     -88.958560     -2420.6855 
   1   1.0000     -88.957225     -2420.6492 
   2   1.0000     -19.350480      -526.5533 
   3   1.0000     -19.348670      -526.5041 
   4   1.0000     -19.242600      -523.6178 
   5   1.0000     -19.238835      -523.5153 
   6   1.0000     -10.431610      -283.8585 
   7   1.0000     -10.428808      -283.7823 
   8   1.0000     -10.330380      -281.1039 
   9   1.0000     -10.328257      -281.0462 
  10   1.0000     -10.304937      -280.4116 
  11   1.0000     -10.303235      -280.3653 
  12   1.0000     -10.299578      -280.2658 
  13   1.0000     -10.299288      -280.2579 
  14   1.0000     -10.297100      -280.1983 
  15   1.0000     -10.296592      -280.1845 
  16   1.0000     -10.296280      -280.1760 
  17   1.0000     -10.295747      -280.1615 
  18   1.0000     -10.290074      -280.0071 
  19   1.0000     -10.289821      -280.0003 
  20   1.0000     -10.289790      -279.9994 
  21   1.0000     -10.289517      -279.9920 
  22   1.0000      -8.055706      -219.2069 
  23   1.0000      -8.054362      -219.1703 
  24   1.0000      -6.009596      -163.5294 
  25   1.0000      -6.008276      -163.4935 
  26   1.0000      -6.005477      -163.4173 
  27   1.0000      -6.004170      -163.3818 
  28   1.0000      -6.001088      -163.2979 
  29   1.0000      -5.999691      -163.2599 
  30   1.0000      -1.326648       -36.0999 
  31   1.0000      -1.214942       -33.0602 
  32   1.0000      -1.182217       -32.1698 
  33   1.0000      -1.085365       -29.5343 
  34   1.0000      -1.004997       -27.3474 
  35   1.0000      -1.003764       -27.3138 
  36   1.0000      -0.937918       -25.5220 
  37   1.0000      -0.936133       -25.4735 
  38   1.0000      -0.883142       -24.0315 
  39   1.0000      -0.881184       -23.9782 
  40   1.0000      -0.874649       -23.8004 
  41   1.0000      -0.872281       -23.7360 
  42   1.0000      -0.803187       -21.8558 
  43   1.0000      -0.787940       -21.4409 
  44   1.0000      -0.754802       -20.5392 
  45   1.0000      -0.737666       -20.0729 
  46   1.0000      -0.735936       -20.0258 
  47   1.0000      -0.718758       -19.5584 
  48   1.0000      -0.696443       -18.9512 
  49   1.0000      -0.682751       -18.5786 
  50   1.0000      -0.663524       -18.0554 
  51   1.0000      -0.653046       -17.7703 
  52   1.0000      -0.618576       -16.8323 
  53   1.0000      -0.599707       -16.3189 
  54   1.0000      -0.587416       -15.9844 
  55   1.0000      -0.584861       -15.9149 
  56   1.0000      -0.572779       -15.5861 
  57   1.0000      -0.567675       -15.4472 
  58   1.0000      -0.564530       -15.3616 
  59   1.0000      -0.554907       -15.0998 
  60   1.0000      -0.551680       -15.0120 
  61   1.0000      -0.539209       -14.6726 
  62   1.0000      -0.535266       -14.5653 
  63   1.0000      -0.531703       -14.4684 
  64   1.0000      -0.530919       -14.4470 
  65   1.0000      -0.530343       -14.4314 
  66   1.0000      -0.519703       -14.1418 
  67   1.0000      -0.503485       -13.7005 
  68   1.0000      -0.498979       -13.5779 
  69   1.0000      -0.493928       -13.4405 
  70   1.0000      -0.490808       -13.3556 
  71   1.0000      -0.468917       -12.7599 
  72   1.0000      -0.464894       -12.6504 
  73   1.0000      -0.455917       -12.4061 
  74   1.0000      -0.449366       -12.2279 
  75   1.0000      -0.447722       -12.1831 
  76   1.0000      -0.422649       -11.5009 
  77   1.0000      -0.418844       -11.3973 
  78   1.0000      -0.417823       -11.3695 
  79   1.0000      -0.407450       -11.0873 
  80   1.0000      -0.401527       -10.9261 
  81   1.0000      -0.394308       -10.7297 
  82   1.0000      -0.387966       -10.5571 
  83   1.0000      -0.359858        -9.7922 
  84   1.0000      -0.356634        -9.7045 
  85   1.0000      -0.303573        -8.2606 
  86   1.0000      -0.301950        -8.2165 
  87   0.0000       0.006803         0.1851 
  88   0.0000       0.021093         0.5740 
  89   0.0000       0.051143         1.3917 
  90   0.0000       0.053588         1.4582 
  91   0.0000       0.075997         2.0680 
  92   0.0000       0.103733         2.8227 
  93   0.0000       0.108370         2.9489 
  94   0.0000       0.111442         3.0325 
  95   0.0000       0.121908         3.3173 
  96   0.0000       0.127716         3.4753 
  97   0.0000       0.141707         3.8560 
  98   0.0000       0.154958         4.2166 
  99   0.0000       0.155052         4.2192 
 100   0.0000       0.164599         4.4790 
 101   0.0000       0.165689         4.5086 
 102   0.0000       0.168671         4.5898 
 103   0.0000       0.178197         4.8490 
 104   0.0000       0.186375         5.0715 
 105   0.0000       0.191413         5.2086 
 106   0.0000       0.192777         5.2457 
 107   0.0000       0.194235         5.2854 
 108   0.0000       0.197538         5.3753 
 109   0.0000       0.204062         5.5528 
 110   0.0000       0.208042         5.6611 
 111   0.0000       0.213013         5.7964 
 112   0.0000       0.219370         5.9693 
 113   0.0000       0.221378         6.0240 
 114   0.0000       0.223991         6.0951 
 115   0.0000       0.235948         6.4205 
 116   0.0000       0.239285         6.5113 
 117   0.0000       0.242124         6.5885 
 118   0.0000       0.254605         6.9282 
 119   0.0000       0.262095         7.1320 
 120   0.0000       0.270464         7.3597 
 121   0.0000       0.276434         7.5222 
 122   0.0000       0.282860         7.6970 
 123   0.0000       0.286669         7.8007 
 124   0.0000       0.290988         7.9182 
 125   0.0000       0.297542         8.0965 
 126   0.0000       0.300804         8.1853 
 127   0.0000       0.301458         8.2031 
 128   0.0000       0.304861         8.2957 
 129   0.0000       0.306956         8.3527 
 130   0.0000       0.313218         8.5231 
 131   0.0000       0.318839         8.6761 
 132   0.0000       0.322596         8.7783 
 133   0.0000       0.323475         8.8022 
 134   0.0000       0.328711         8.9447 
 135   0.0000       0.332710         9.0535 
 136   0.0000       0.335649         9.1335 
 137   0.0000       0.337254         9.1771 
 138   0.0000       0.341123         9.2824 
 139   0.0000       0.342352         9.3159 
 140   0.0000       0.349977         9.5234 
 141   0.0000       0.361533         9.8378 
 142   0.0000       0.367172         9.9913 
 143   0.0000       0.370283        10.0759 
 144   0.0000       0.374689        10.1958 
 145   0.0000       0.378203        10.2914 
 146   0.0000       0.383071        10.4239 
 147   0.0000       0.395957        10.7745 
 148   0.0000       0.397666        10.8210 
 149   0.0000       0.403474        10.9791 
 150   0.0000       0.406449        11.0600 
 151   0.0000       0.410759        11.1773 
 152   0.0000       0.416138        11.3237 
 153   0.0000       0.421055        11.4575 
 154   0.0000       0.422757        11.5038 
 155   0.0000       0.426609        11.6086 
 156   0.0000       0.430400        11.7118 
 157   0.0000       0.442326        12.0363 
 158   0.0000       0.445444        12.1211 
 159   0.0000       0.450260        12.2522 
 160   0.0000       0.454119        12.3572 
 161   0.0000       0.457903        12.4602 
 162   0.0000       0.462047        12.5729 
 163   0.0000       0.465111        12.6563 
 164   0.0000       0.471273        12.8240 
 165   0.0000       0.474574        12.9138 
 166   0.0000       0.483440        13.1551 
 167   0.0000       0.484943        13.1960 
 168   0.0000       0.487445        13.2641 
 169   0.0000       0.493236        13.4216 
 170   0.0000       0.494543        13.4572 
 171   0.0000       0.496948        13.5227 
 172   0.0000       0.503329        13.6963 
 173   0.0000       0.506530        13.7834 
 174   0.0000       0.512108        13.9352 
 175   0.0000       0.515972        14.0403 
 176   0.0000       0.522745        14.2246 
 177   0.0000       0.526948        14.3390 
 178   0.0000       0.530896        14.4464 
 179   0.0000       0.537682        14.6311 
 180   0.0000       0.540784        14.7155 
 181   0.0000       0.548291        14.9198 
 182   0.0000       0.552040        15.0218 
 183   0.0000       0.557577        15.1724 
 184   0.0000       0.558945        15.2097 
 185   0.0000       0.561729        15.2854 
 186   0.0000       0.569776        15.5044 
 187   0.0000       0.572141        15.5688 
 188   0.0000       0.578085        15.7305 
 189   0.0000       0.580420        15.7940 
 190   0.0000       0.584594        15.9076 
 191   0.0000       0.586984        15.9726 
 192   0.0000       0.592735        16.1291 
 193   0.0000       0.599720        16.3192 
 194   0.0000       0.606547        16.5050 
 195   0.0000       0.612285        16.6611 
 196   0.0000       0.614998        16.7349 
 197   0.0000       0.625641        17.0246 
 198   0.0000       0.628871        17.1125 
 199   0.0000       0.632815        17.2198 
 200   0.0000       0.636417        17.3178 
 201   0.0000       0.640308        17.4237 
 202   0.0000       0.641777        17.4636 
 203   0.0000       0.654958        17.8223 
 204   0.0000       0.662458        18.0264 
 205   0.0000       0.671296        18.2669 
 206   0.0000       0.680613        18.5204 
 207   0.0000       0.683778        18.6066 
 208   0.0000       0.688827        18.7439 
 209   0.0000       0.695297        18.9200 
 210   0.0000       0.708651        19.2834 
 211   0.0000       0.717225        19.5167 
 212   0.0000       0.720116        19.5953 
 213   0.0000       0.727791        19.8042 
 214   0.0000       0.733467        19.9587 
 215   0.0000       0.738685        20.1006 
 216   0.0000       0.747450        20.3392 
 217   0.0000       0.758546        20.6411 
 218   0.0000       0.762700        20.7541 
 219   0.0000       0.764948        20.8153 
 220   0.0000       0.773356        21.0441 
 221   0.0000       0.780502        21.2385 
 222   0.0000       0.784104        21.3366 
 223   0.0000       0.786368        21.3982 
 224   0.0000       0.790871        21.5207 
 225   0.0000       0.799991        21.7689 
 226   0.0000       0.801334        21.8054 
 227   0.0000       0.808061        21.9885 
 228   0.0000       0.813595        22.1390 
 229   0.0000       0.817945        22.2574 
 230   0.0000       0.827557        22.5190 
 231   0.0000       0.834619        22.7111 
 232   0.0000       0.844714        22.9858 
 233   0.0000       0.849129        23.1060 
 234   0.0000       0.856247        23.2997 
 235   0.0000       0.859675        23.3929 
 236   0.0000       0.864092        23.5131 
 237   0.0000       0.866189        23.5702 
 238   0.0000       0.867404        23.6033 
 239   0.0000       0.881942        23.9989 
 240   0.0000       0.886728        24.1291 
 241   0.0000       0.890625        24.2351 
 242   0.0000       0.892148        24.2766 
 243   0.0000       0.902021        24.5452 
 244   0.0000       0.904753        24.6196 
 245   0.0000       0.912968        24.8431 
 246   0.0000       0.921257        25.0687 
 247   0.0000       0.932572        25.3766 
 248   0.0000       0.943422        25.6718 
 249   0.0000       0.946186        25.7470 
 250   0.0000       0.955347        25.9963 
 251   0.0000       0.958657        26.0864 
 252   0.0000       0.962455        26.1897 
 253   0.0000       0.973996        26.5038 
 254   0.0000       0.978023        26.6134 
 255   0.0000       0.985194        26.8085 
 256   0.0000       0.996531        27.1170 
 257   0.0000       0.998644        27.1745 
 258   0.0000       1.005869        27.3711 
 259   0.0000       1.012378        27.5482 
 260   0.0000       1.016627        27.6638 
 261   0.0000       1.030608        28.0443 
 262   0.0000       1.031912        28.0797 
 263   0.0000       1.042035        28.3552 
 264   0.0000       1.052355        28.6360 
 265   0.0000       1.055941        28.7336 
 266   0.0000       1.061468        28.8840 
 267   0.0000       1.066589        29.0234 
 268   0.0000       1.070588        29.1322 
 269   0.0000       1.088702        29.6251 
 270   0.0000       1.092110        29.7178 
 271   0.0000       1.098558        29.8933 
 272   0.0000       1.105092        30.0711 
 273   0.0000       1.114836        30.3362 
 274   0.0000       1.126127        30.6435 
 275   0.0000       1.131935        30.8015 
 276   0.0000       1.137724        30.9590 
 277   0.0000       1.146086        31.1866 
 278   0.0000       1.163447        31.6590 
 279   0.0000       1.165395        31.7120 
 280   0.0000       1.175022        31.9740 
 281   0.0000       1.178835        32.0777 
 282   0.0000       1.188124        32.3305 
 283   0.0000       1.196413        32.5561 
 284   0.0000       1.216952        33.1149 
 285   0.0000       1.221633        33.2423 
 286   0.0000       1.237679        33.6790 
 287   0.0000       1.250521        34.0284 
 288   0.0000       1.260821        34.3087 
 289   0.0000       1.267266        34.4840 
 290   0.0000       1.283285        34.9200 
 291   0.0000       1.297719        35.3127 
 292   0.0000       1.305077        35.5130 
 293   0.0000       1.312648        35.7190 
 294   0.0000       1.317418        35.8488 
 295   0.0000       1.324502        36.0415 
 296   0.0000       1.327928        36.1348 
 297   0.0000       1.331884        36.2424 
 298   0.0000       1.342498        36.5312 
 299   0.0000       1.352543        36.8046 
 300   0.0000       1.367173        37.2027 
 301   0.0000       1.370924        37.3048 
 302   0.0000       1.383296        37.6414 
 303   0.0000       1.386982        37.7417 
 304   0.0000       1.390923        37.8489 
 305   0.0000       1.393653        37.9232 
 306   0.0000       1.408107        38.3165 
 307   0.0000       1.422463        38.7072 
 308   0.0000       1.424939        38.7745 
 309   0.0000       1.436529        39.0899 
 310   0.0000       1.452292        39.5189 
 311   0.0000       1.463523        39.8245 
 312   0.0000       1.479289        40.2535 
 313   0.0000       1.487617        40.4801 
 314   0.0000       1.504725        40.9457 
 315   0.0000       1.515708        41.2445 
 316   0.0000       1.533828        41.7376 
 317   0.0000       1.538405        41.8621 
 318   0.0000       1.544488        42.0277 
 319   0.0000       1.549146        42.1544 
 320   0.0000       1.557326        42.3770 
 321   0.0000       1.564475        42.5715 
 322   0.0000       1.575798        42.8796 
 323   0.0000       1.581527        43.0355 
 324   0.0000       1.587975        43.2110 
 325   0.0000       1.596037        43.4304 
 326   0.0000       1.601167        43.5700 
 327   0.0000       1.605054        43.6758 
 328   0.0000       1.608235        43.7623 
 329   0.0000       1.608899        43.7804 
 330   0.0000       1.615186        43.9514 
 331   0.0000       1.622414        44.1481 
 332   0.0000       1.623967        44.1904 
 333   0.0000       1.627744        44.2932 
 334   0.0000       1.630282        44.3622 
 335   0.0000       1.635276        44.4981 
 336   0.0000       1.644218        44.7415 
 337   0.0000       1.649237        44.8780 
 338   0.0000       1.652246        44.9599 
 339   0.0000       1.653819        45.0027 
 340   0.0000       1.658843        45.1394 
 341   0.0000       1.666028        45.3349 
 342   0.0000       1.671790        45.4917 
 343   0.0000       1.680049        45.7165 
 344   0.0000       1.682949        45.7954 
 345   0.0000       1.688412        45.9440 
 346   0.0000       1.696668        46.1687 
 347   0.0000       1.697808        46.1997 
 348   0.0000       1.704908        46.3929 
 349   0.0000       1.711791        46.5802 
 350   0.0000       1.717654        46.7397 
 351   0.0000       1.720830        46.8262 
 352   0.0000       1.723471        46.8980 
 353   0.0000       1.736559        47.2542 
 354   0.0000       1.749045        47.5939 
 355   0.0000       1.755862        47.7794 
 356   0.0000       1.762395        47.9572 
 357   0.0000       1.768476        48.1227 
 358   0.0000       1.776269        48.3347 
 359   0.0000       1.781729        48.4833 
 360   0.0000       1.785217        48.5782 
 361   0.0000       1.788853        48.6772 
 362   0.0000       1.792952        48.7887 
 363   0.0000       1.798789        48.9475 
 364   0.0000       1.812788        49.3285 
 365   0.0000       1.817314        49.4516 
 366   0.0000       1.821727        49.5717 
 367   0.0000       1.832033        49.8522 
 368   0.0000       1.843589        50.1666 
 369   0.0000       1.846772        50.2532 
 370   0.0000       1.873793        50.9885 
 371   0.0000       1.879180        51.1351 
 372   0.0000       1.891698        51.4757 
 373   0.0000       1.907807        51.9141 
 374   0.0000       1.908119        51.9225 
 375   0.0000       1.915467        52.1225 
 376   0.0000       1.919613        52.2353 
 377   0.0000       1.922533        52.3148 
 378   0.0000       1.926549        52.4241 
 379   0.0000       1.936859        52.7046 
 380   0.0000       1.940016        52.7905 
 381   0.0000       1.942873        52.8683 
 382   0.0000       1.949246        53.0417 
 383   0.0000       1.952439        53.1286 
 384   0.0000       1.959655        53.3249 
 385   0.0000       1.961941        53.3871 
 386   0.0000       1.969707        53.5984 
 387   0.0000       1.972739        53.6810 
 388   0.0000       1.976977        53.7963 
 389   0.0000       1.982682        53.9515 
 390   0.0000       1.995382        54.2971 
 391   0.0000       1.998414        54.3796 
 392   0.0000       2.015697        54.8499 
 393   0.0000       2.026812        55.1524 
 394   0.0000       2.040779        55.5324 
 395   0.0000       2.058304        56.0093 
 396   0.0000       2.063813        56.1592 
 397   0.0000       2.069065        56.3021 
 398   0.0000       2.072539        56.3967 
 399   0.0000       2.093865        56.9770 
 400   0.0000       2.107319        57.3431 
 401   0.0000       2.112956        57.4964 
 402   0.0000       2.122955        57.7686 
[...]
      dx2y2   :     0.000000
      dxy     :    -0.000000
      f0      :     0.000000  f :    -0.000000
      f+1     :    -0.000000
      f-1     :    -0.000000
      f+2     :    -0.000000
      f-2     :    -0.000000
      f+3     :    -0.000000
      f-3     :    -0.000000
  7 C s       :    -0.000000  s :    -0.000000
      pz      :     0.000000  p :     0.000000
      px      :    -0.000000
      py      :    -0.000000
      dz2     :    -0.000000  d :     0.000000
      dxz     :     0.000000
      dyz     :     0.000000
      dx2y2   :     0.000000
      dxy     :    -0.000000
      f0      :     0.000000  f :     0.000000
      f+1     :    -0.000000
      f-1     :    -0.000000
      f+2     :     0.000000
      f-2     :     0.000000
      f+3     :     0.000000
      f-3     :    -0.000000
  8 C s       :    -0.000000  s :    -0.000000
      pz      :     0.000000  p :     0.000000
      px      :     0.000000
      py      :     0.000000
      dz2     :     0.000000  d :     0.000000
      dxz     :    -0.000000
      dyz     :    -0.000000
      dx2y2   :     0.000000
      dxy     :    -0.000000
      f0      :    -0.000000  f :    -0.000000
      f+1     :    -0.000000
      f-1     :     0.000000
      f+2     :    -0.000000
      f-2     :     0.000000
      f+3     :    -0.000000
      f-3     :     0.000000
  9 O s       :    -0.000000  s :    -0.000000
      pz      :     0.000000  p :     0.000000
      px      :     0.000000
      py      :     0.000000
      dz2     :    -0.000000  d :    -0.000000
      dxz     :     0.000000
      dyz     :    -0.000000
      dx2y2   :     0.000000
      dxy     :    -0.000000
      f0      :     0.000000  f :     0.000000
      f+1     :     0.000000
      f-1     :     0.000000
      f+2     :     0.000000
      f-2     :    -0.000000
      f+3     :    -0.000000
      f-3     :     0.000000
 10 O s       :    -0.000000  s :    -0.000000
      pz      :    -0.000000  p :     0.000000
      px      :     0.000000
      py      :    -0.000000
      dz2     :     0.000000  d :     0.000000
      dxz     :    -0.000000
      dyz     :    -0.000000
      dx2y2   :     0.000000
      dxy     :     0.000000
      f0      :    -0.000000  f :    -0.000000
      f+1     :    -0.000000
      f-1     :    -0.000000
      f+2     :     0.000000
      f-2     :     0.000000
      f+3     :     0.000000
      f-3     :     0.000000
 11 O s       :    -0.000000  s :    -0.000000
      pz      :    -0.000000  p :    -0.000000
      px      :    -0.000000
      py      :    -0.000000
      dz2     :     0.000000  d :     0.000000
      dxz     :    -0.000000
      dyz     :     0.000000
      dx2y2   :    -0.000000
      dxy     :    -0.000000
      f0      :     0.000000  f :    -0.000000
      f+1     :    -0.000000
      f-1     :     0.000000
      f+2     :     0.000000
      f-2     :    -0.000000
      f+3     :    -0.000000
      f-3     :    -0.000000
 12 C s       :    -0.000000  s :    -0.000000
      pz      :    -0.000000  p :    -0.000000
      px      :    -0.000000
      py      :     0.000000
      dz2     :    -0.000000  d :     0.000000
      dxz     :     0.000000
      dyz     :     0.000000
      dx2y2   :     0.000000
      dxy     :    -0.000000
      f0      :     0.000000  f :     0.000000
      f+1     :    -0.000000
      f-1     :     0.000000
      f+2     :    -0.000000
      f-2     :     0.000000
      f+3     :     0.000000
      f-3     :    -0.000000
 13 C s       :     0.000000  s :     0.000000
      pz      :    -0.000000  p :    -0.000000
      px      :    -0.000000
      py      :    -0.000000
      dz2     :     0.000000  d :     0.000000
      dxz     :    -0.000000
      dyz     :    -0.000000
      dx2y2   :     0.000000
      dxy     :    -0.000000
      f0      :    -0.000000  f :    -0.000000
      f+1     :     0.000000
      f-1     :     0.000000
      f+2     :     0.000000
      f-2     :     0.000000
      f+3     :     0.000000
      f-3     :     0.000000
 14 O s       :     0.000000  s :     0.000000
      pz      :    -0.000000  p :     0.000000
      px      :     0.000000
      py      :     0.000000
      dz2     :     0.000000  d :     0.000000
      dxz     :     0.000000
      dyz     :     0.000000
      dx2y2   :    -0.000000
      dxy     :    -0.000000
      f0      :     0.000000  f :    -0.000000
      f+1     :    -0.000000
      f-1     :     0.000000
      f+2     :     0.000000
      f-2     :     0.000000
      f+3     :     0.000000
      f-3     :    -0.000000
 15 C s       :    -0.000000  s :    -0.000000
      pz      :     0.000000  p :     0.000000
      px      :     0.000000
      py      :     0.000000
      dz2     :     0.000000  d :    -0.000000
      dxz     :    -0.000000
      dyz     :    -0.000000
      dx2y2   :    -0.000000
      dxy     :    -0.000000
      f0      :     0.000000  f :    -0.000000
      f+1     :    -0.000000
      f-1     :    -0.000000
      f+2     :    -0.000000
      f-2     :    -0.000000
      f+3     :    -0.000000
      f-3     :    -0.000000
 16 C s       :     0.000000  s :     0.000000
      pz      :    -0.000000  p :    -0.000000
      px      :    -0.000000
      py      :    -0.000000
      dz2     :    -0.000000  d :     0.000000
      dxz     :     0.000000
      dyz     :     0.000000
      dx2y2   :     0.000000
      dxy     :    -0.000000
      f0      :     0.000000  f :     0.000000
      f+1     :    -0.000000
      f-1     :    -0.000000
      f+2     :     0.000000
      f-2     :    -0.000000
      f+3     :     0.000000
      f-3     :     0.000000
 17 C s       :    -0.000000  s :    -0.000000
      pz      :    -0.000000  p :     0.000000
      px      :     0.000000
      py      :     0.000000
      dz2     :     0.000000  d :    -0.000000
      dxz     :    -0.000000
      dyz     :     0.000000
      dx2y2   :    -0.000000
      dxy     :    -0.000000
      f0      :     0.000000  f :     0.000000
      f+1     :     0.000000
      f-1     :     0.000000
      f+2     :     0.000000
      f-2     :     0.000000
      f+3     :     0.000000
      f-3     :    -0.000000
 18 C s       :    -0.000000  s :    -0.000000
      pz      :     0.000000  p :     0.000000
      px      :    -0.000000
      py      :    -0.000000
      dz2     :    -0.000000  d :    -0.000000
      dxz     :     0.000000
      dyz     :     0.000000
      dx2y2   :    -0.000000
      dxy     :    -0.000000
      f0      :    -0.000000  f :    -0.000000
      f+1     :     0.000000
      f-1     :    -0.000000
      f+2     :    -0.000000
      f-2     :    -0.000000
      f+3     :     0.000000
      f-3     :    -0.000000
 19 C s       :     0.000000  s :     0.000000
      pz      :     0.000000  p :     0.000000
      px      :    -0.000000
      py      :     0.000000
      dz2     :     0.000000  d :    -0.000000
      dxz     :     0.000000
      dyz     :    -0.000000
      dx2y2   :    -0.000000
      dxy     :     0.000000
      f0      :    -0.000000  f :    -0.000000
      f+1     :     0.000000
      f-1     :    -0.000000
      f+2     :    -0.000000
      f-2     :     0.000000
      f+3     :    -0.000000
      f-3     :     0.000000
 20 S s       :     0.000000  s :     0.000000
      pz      :     0.000000  p :     0.000000
      px      :     0.000000
      py      :     0.000000
      dz2     :     0.000000  d :     0.000000
      dxz     :     0.000000
      dyz     :    -0.000000
      dx2y2   :    -0.000000
      dxy     :     0.000000
      f0      :    -0.000000  f :    -0.000000
      f+1     :     0.000000
      f-1     :    -0.000000
      f+2     :     0.000000
      f-2     :     0.000000
      f+3     :     0.000000
      f-3     :    -0.000000
 21 C s       :    -0.000000  s :    -0.000000
      pz      :     0.000000  p :     0.000000
      px      :     0.000000
      py      :     0.000000
      dz2     :    -0.000000  d :    -0.000000
      dxz     :     0.000000
      dyz     :    -0.000000
      dx2y2   :    -0.000000
      dxy     :     0.000000
      f0      :    -0.000000  f :     0.000000
      f+1     :     0.000000
      f-1     :    -0.000000
      f+2     :    -0.000000
      f-2     :    -0.000000
      f+3     :     0.000000
      f-3     :     0.000000
 22 H s       :     0.000000  s :     0.000000
      pz      :    -0.000000  p :    -0.000000
      px      :     0.000000
      py      :    -0.000000
 23 H s       :    -0.000000  s :    -0.000000
      pz      :     0.000000  p :    -0.000000
      px      :    -0.000000
      py      :    -0.000000
 24 H s       :     0.000000  s :     0.000000
      pz      :    -0.000000  p :    -0.000000
      px      :    -0.000000
      py      :     0.000000
 25 H s       :    -0.000000  s :    -0.000000
      pz      :     0.000000  p :     0.000000
      px      :     0.000000
      py      :     0.000000
 26 H s       :     0.000000  s :     0.000000
      pz      :     0.000000  p :    -0.000000
      px      :    -0.000000
      py      :     0.000000
 27 H s       :    -0.000000  s :    -0.000000
      pz      :     0.000000  p :     0.000000
      px      :     0.000000
      py      :    -0.000000
 28 H s       :     0.000000  s :     0.000000
      pz      :    -0.000000  p :     0.000000
      px      :     0.000000
      py      :     0.000000
 29 H s       :    -0.000000  s :    -0.000000
      pz      :     0.000000  p :     0.000000
      px      :    -0.000000
      py      :     0.000000
 30 H s       :     0.000000  s :     0.000000
      pz      :     0.000000  p :    -0.000000
      px      :    -0.000000
      py      :    -0.000000
 31 H s       :    -0.000000  s :    -0.000000
      pz      :     0.000000  p :     0.000000
      px      :     0.000000
      py      :     0.000000
 32 H s       :     0.000000  s :     0.000000
      pz      :    -0.000000  p :    -0.000000
      px      :    -0.000000
      py      :    -0.000000
 33 H s       :    -0.000000  s :    -0.000000
      pz      :     0.000000  p :     0.000000
      px      :    -0.000000
      py      :     0.000000
 34 H s       :    -0.000000  s :    -0.000000
      pz      :     0.000000  p :     0.000000
      px      :     0.000000
      py      :    -0.000000
 35 H s       :     0.000000  s :     0.000000
      pz      :     0.000000  p :     0.000000
      px      :     0.000000
      py      :     0.000000


                      *****************************
                      * MAYER POPULATION ANALYSIS *
                      *****************************

  NA   - Mulliken gross atomic population
  ZA   - Total nuclear charge
  QA   - Mulliken gross atomic charge
  VA   - Mayer's total valence
  BVA  - Mayer's bonded valence
  FA   - Mayer's free valence

  ATOM       NA         ZA         QA         VA         BVA        FA
  0 C      6.4225     6.0000    -0.4225     3.9165     3.9165    -0.0000
  1 S     16.0705    16.0000    -0.0705     2.3366     2.3366     0.0000
  2 C      5.8247     6.0000     0.1753     3.6845     3.6845     0.0000
  3 C      6.2924     6.0000    -0.2924     3.8836     3.8836     0.0000
  4 C      6.1882     6.0000    -0.1882     3.9255     3.9255     0.0000
  5 C      5.9291     6.0000     0.0709     3.6084     3.6084    -0.0000
  6 C      6.2230     6.0000    -0.2230     3.9198     3.9198    -0.0000
  7 C      6.1987     6.0000    -0.1987     3.8543     3.8543    -0.0000
  8 C      5.6798     6.0000     0.3202     4.2784     4.2784    -0.0000
  9 O      8.1003     8.0000    -0.1003     2.0094     2.0094    -0.0000
 10 O      8.3101     8.0000    -0.3101     2.2021     2.2021     0.0000
 11 O      8.1276     8.0000    -0.1276     1.9955     1.9955    -0.0000
 12 C      5.6381     6.0000     0.3619     4.2761     4.2761    -0.0000
 13 C      5.9271     6.0000     0.0729     3.4957     3.4957     0.0000
 14 O      8.3290     8.0000    -0.3290     2.1851     2.1851    -0.0000
 15 C      6.2332     6.0000    -0.2332     4.0152     4.0152     0.0000
 16 C      6.1631     6.0000    -0.1631     3.8325     3.8325    -0.0000
 17 C      5.8605     6.0000     0.1395     3.7944     3.7944    -0.0000
 18 C      6.2668     6.0000    -0.2668     3.8595     3.8595     0.0000
 19 C      6.2590     6.0000    -0.2590     4.0077     4.0077    -0.0000
 20 S     16.0470    16.0000    -0.0470     2.3935     2.3935     0.0000
 21 C      6.4125     6.0000    -0.4125     3.9267     3.9267     0.0000
 22 H      0.8121     1.0000     0.1879     0.9572     0.9572    -0.0000
 23 H      0.8350     1.0000     0.1650     0.9614     0.9614     0.0000
 24 H      0.8208     1.0000     0.1792     0.9562     0.9562     0.0000
 25 H      0.8134     1.0000     0.1866     0.9546     0.9546    -0.0000
 26 H      0.8155     1.0000     0.1845     0.9663     0.9663    -0.0000
 27 H      0.8236     1.0000     0.1764     0.9630     0.9630    -0.0000
 28 H      0.8302     1.0000     0.1698     0.9696     0.9696    -0.0000
 29 H      0.8273     1.0000     0.1727     0.9786     0.9786     0.0000
 30 H      0.8283     1.0000     0.1717     0.9669     0.9669     0.0000
 31 H      0.8120     1.0000     0.1880     0.9616     0.9616    -0.0000
 32 H      0.8028     1.0000     0.1972     0.9591     0.9591     0.0000
 33 H      0.8112     1.0000     0.1888     0.9580     0.9580     0.0000
 34 H      0.8386     1.0000     0.1614     0.9666     0.9666    -0.0000
 35 H      0.8261     1.0000     0.1739     0.9561     0.9561    -0.0000

  Mayer bond orders larger than 0.100000
B(  0-C ,  1-S ) :   1.0431 B(  0-C , 22-H ) :   0.9432 B(  0-C , 23-H ) :   0.9530 
B(  0-C , 24-H ) :   0.9555 B(  1-S ,  2-C ) :   1.1281 B(  2-C ,  3-C ) :   1.2781 
B(  2-C ,  7-C ) :   1.2579 B(  3-C ,  4-C ) :   1.4284 B(  3-C , 25-H ) :   0.9732 
B(  4-C ,  5-C ) :   1.3249 B(  4-C , 26-H ) :   0.9812 B(  5-C ,  6-C ) :   1.2883 
B(  5-C ,  8-C ) :   0.9420 B(  6-C ,  7-C ) :   1.4621 B(  6-C , 27-H ) :   0.9981 
B(  7-C , 28-H ) :   0.9853 B(  8-C ,  9-O ) :   1.1027 B(  8-C , 10-O ) :   2.1355 
B(  9-O , 11-O ) :   0.8265 B( 11-O , 12-C ) :   1.0677 B( 12-C , 13-C ) :   1.0044 
B( 12-C , 14-O ) :   2.0680 B( 13-C , 15-C ) :   1.3045 B( 13-C , 19-C ) :   1.3123 
B( 15-C , 16-C ) :   1.5017 B( 15-C , 29-H ) :   0.9744 B( 16-C , 17-C ) :   1.2593 
B( 16-C , 30-H ) :   0.9812 B( 17-C , 18-C ) :   1.2703 B( 17-C , 20-S ) :   1.1903 
B( 18-C , 19-C ) :   1.4565 B( 18-C , 31-H ) :   0.9691 B( 19-C , 32-H ) :   0.9627 
B( 20-S , 21-C ) :   1.0584 B( 21-C , 33-H ) :   0.9428 B( 21-C , 34-H ) :   0.9533 
B( 21-C , 35-H ) :   0.9547 

-------
TIMINGS
-------

Total SCF time: 0 days 0 hours 3 min 50 sec 

Total time                  ....     230.391 sec
Sum of individual times     ....     227.468 sec  ( 98.7%)

Fock matrix formation       ....     220.311 sec  ( 95.6%)
  Split-RI-J                ....       7.441 sec  (  3.4% of F)
  Chain of spheres X        ....     189.269 sec  ( 85.9% of F)
  XC integration            ....      12.969 sec  (  5.9% of F)
    Basis function eval.    ....       2.134 sec  ( 16.5% of XC)
    Density eval.           ....       6.405 sec  ( 49.4% of XC)
    XC-Functional eval.     ....       0.317 sec  (  2.4% of XC)
    XC-Potential eval.      ....       3.172 sec  ( 24.5% of XC)
Diagonalization             ....       2.386 sec  (  1.0%)
Density matrix formation    ....       0.112 sec  (  0.0%)
Population analysis         ....       0.338 sec  (  0.1%)
Initial guess               ....       0.511 sec  (  0.2%)
Orbital Transformation      ....       0.000 sec  (  0.0%)
Orbital Orthonormalization  ....       0.452 sec  (  0.2%)
DIIS solution               ....       0.859 sec  (  0.4%)
Grid generation             ....       2.952 sec  (  1.3%)

Maximum memory used throughout the entire SCF-calculation: 191.1 MB


-------------------------------------------------------------------------------
                          DFT DISPERSION CORRECTION                            
                                                                               
                              DFTD3 V3.1  Rev 1                                
                              USING zero damping                               
-------------------------------------------------------------------------------
The omegaB97X-D3 functional is recognized. Fit by Chai et al.
Active option DFTDOPT                   ...         3   

molecular C6(AA) [au] = 19258.750726 


            DFT-D V3
 parameters
 s6 scaling factor         :     1.0000 
 rs6 scaling factor        :     1.2810 
 s8 scaling factor         :     1.0000 
 rs8 scaling factor        :     1.0940 
 Damping factor alpha6     :    14.0000 
 Damping factor alpha8     :    16.0000 
 ad hoc parameters k1-k3   :    16.0000     1.3333    -4.0000 

 Edisp/kcal,au: -13.978536004577  -0.022276212697 
 E6   /kcal   :  -6.776888101 
 E8   /kcal   :  -7.201647904 
 % E8         :  51.519328643 

-------------------------   ----------------
Dispersion correction           -0.022276213
-------------------------   ----------------


-------------------------   --------------------
FINAL SINGLE POINT ENERGY     -1715.485023144267
-------------------------   --------------------

                                *** OPTIMIZATION RUN DONE ***

                            ***************************************
                            *     ORCA property calculations      *
                            ***************************************

                                    ---------------------
                                    Active property flags
                                    ---------------------
   (+) Dipole Moment


------------------------------------------------------------------------------
                       ORCA ELECTRIC PROPERTIES CALCULATION
------------------------------------------------------------------------------

Dipole Moment Calculation                       ... on
Quadrupole Moment Calculation                   ... off
Polarizability Calculation                      ... off
GBWName                                         ... /burg/berkelbach/users/eav2136/projects/peroxide_dissociation/05_range_separated_functional/wb97x-d-peroxide-dmf/wb97x-d-peroxide-dmf_opt.gbw
Electron density                                ... /burg/berkelbach/users/eav2136/projects/peroxide_dissociation/05_range_separated_functional/wb97x-d-peroxide-dmf/wb97x-d-peroxide-dmf_opt.scfp
The origin for moment calculation is the CENTER OF MASS  = (-0.239479,  3.490644  5.645577)

-------------
DIPOLE MOMENT
-------------
                                X             Y             Z
Electronic contribution:     -0.43594      -8.64106     -14.54691
Nuclear contribution   :      1.12610       9.88410      17.98793
                        -----------------------------------------
Total Dipole Moment    :      0.69016       1.24304       3.44103
                        -----------------------------------------
Magnitude (a.u.)       :      3.72319
Magnitude (Debye)      :      9.46359



--------------------
Rotational spectrum 
--------------------
 
Rotational constants in cm-1:     0.012391     0.006331     0.004772 
Rotational constants in MHz :   371.458892   189.798170   143.072043 

 Dipole components along the rotational axes: 
x,y,z [a.u.] :     3.531458     1.037570    -0.560702 
x,y,z [Debye]:     8.976253     2.637294    -1.425191 

 

Timings for individual modules:

Sum of individual times         ...    15074.042 sec (= 251.234 min)
GTO integral calculation        ...       60.163 sec (=   1.003 min)   0.4 %
SCF iterations                  ...    11871.545 sec (= 197.859 min)  78.8 %
SCF Gradient evaluation         ...     3139.291 sec (=  52.322 min)  20.8 %
Geometry relaxation             ...        3.043 sec (=   0.051 min)   0.0 %
                             ****ORCA TERMINATED NORMALLY****
TOTAL RUN TIME: 0 days 4 hours 11 minutes 52 seconds 123 msec
