Job execution start: Fri Apr 22 10:37:08 EDT 2022
Shared library path: /cm/shared/apps/cuda11.0/toolkit/11.0.3/compat:/burg/berkelbach/users/eav2136/builds/orca/5.0.3/orca:/cm/shared/apps/ucx/1.8.1/lib64:/cm/local/apps/cuda/libs/current/lib64:/cm/shared/apps/cuda11.0/toolkit/11.0.3/targets/x86_64-linux/lib:/cm/shared/apps/cuda11.0/visual-tools/11.0.3/libnvvp:/burg/opt/openmpi-4.1.1_ucx_cuda_11.0.3_support/lib:/cm/shared/apps/slurm/current/lib64/slurm:/cm/shared/apps/slurm/current/lib64
Slurm Job ID is: 1844783
Slurm Job name is: dmso_peroxide_opt
g067

                                 *****************
                                 * O   R   C   A *
                                 *****************

                                            #,                                       
                                            ###                                      
                                            ####                                     
                                            #####                                    
                                            ######                                   
                                           ########,                                 
                                     ,,################,,,,,                         
                               ,,#################################,,                 
                          ,,##########################################,,             
                       ,#########################################, ''#####,          
                    ,#############################################,,   '####,        
                  ,##################################################,,,,####,       
                ,###########''''           ''''###############################       
              ,#####''   ,,,,##########,,,,          '''####'''          '####       
            ,##' ,,,,###########################,,,                        '##       
           ' ,,###''''                  '''############,,,                           
         ,,##''                                '''############,,,,        ,,,,,,###''
      ,#''                                            '''#######################'''  
     '                                                          ''''####''''         
             ,#######,   #######,   ,#######,      ##                                
            ,#'     '#,  ##    ##  ,#'     '#,    #''#        ######   ,####,        
            ##       ##  ##   ,#'  ##            #'  '#       #        #'  '#        
            ##       ##  #######   ##           ,######,      #####,   #    #        
            '#,     ,#'  ##    ##  '#,     ,#' ,#      #,         ##   #,  ,#        
             '#######'   ##     ##  '#######'  #'      '#     #####' # '####'        



                  #######################################################
                  #                        -***-                        #
                  #          Department of theory and spectroscopy      #
                  #    Directorship and core code : Frank Neese         #
                  #        Max Planck Institute fuer Kohlenforschung    #
                  #                Kaiser Wilhelm Platz 1               #
                  #                 D-45470 Muelheim/Ruhr               #
                  #                      Germany                        #
                  #                                                     #
                  #                  All rights reserved                #
                  #                        -***-                        #
                  #######################################################


                         Program Version 5.0.3 -  RELEASE  -


 With contributions from (in alphabetic order):
   Daniel Aravena         : Magnetic Suceptibility
   Michael Atanasov       : Ab Initio Ligand Field Theory (pilot matlab implementation)
   Alexander A. Auer      : GIAO ZORA, VPT2 properties, NMR spectrum
   Ute Becker             : Parallelization
   Giovanni Bistoni       : ED, misc. LED, open-shell LED, HFLD
   Martin Brehm           : Molecular dynamics
   Dmytro Bykov           : SCF Hessian
   Vijay G. Chilkuri      : MRCI spin determinant printing, contributions to CSF-ICE
   Dipayan Datta          : RHF DLPNO-CCSD density
   Achintya Kumar Dutta   : EOM-CC, STEOM-CC
   Dmitry Ganyushin       : Spin-Orbit,Spin-Spin,Magnetic field MRCI
   Miquel Garcia          : C-PCM and meta-GGA Hessian, CC/C-PCM, Gaussian charge scheme
   Yang Guo               : DLPNO-NEVPT2, F12-NEVPT2, CIM, IAO-localization
   Andreas Hansen         : Spin unrestricted coupled pair/coupled cluster methods
   Benjamin Helmich-Paris : MC-RPA, TRAH-SCF, COSX integrals
   Lee Huntington         : MR-EOM, pCC
   Robert Izsak           : Overlap fitted RIJCOSX, COSX-SCS-MP3, EOM
   Marcus Kettner         : VPT2
   Christian Kollmar      : KDIIS, OOCD, Brueckner-CCSD(T), CCSD density, CASPT2, CASPT2-K
   Simone Kossmann        : Meta GGA functionals, TD-DFT gradient, OOMP2, MP2 Hessian
   Martin Krupicka        : Initial AUTO-CI
   Lucas Lang             : DCDCAS
   Marvin Lechner         : AUTO-CI (C++ implementation), FIC-MRCC
   Dagmar Lenk            : GEPOL surface, SMD
   Dimitrios Liakos       : Extrapolation schemes; Compound Job, initial MDCI parallelization
   Dimitrios Manganas     : Further ROCIS development; embedding schemes
   Dimitrios Pantazis     : SARC Basis sets
   Anastasios Papadopoulos: AUTO-CI, single reference methods and gradients
   Taras Petrenko         : DFT Hessian,TD-DFT gradient, ASA, ECA, R-Raman, ABS, FL, XAS/XES, NRVS
   Peter Pinski           : DLPNO-MP2, DLPNO-MP2 Gradient
   Christoph Reimann      : Effective Core Potentials
   Marius Retegan         : Local ZFS, SOC
   Christoph Riplinger    : Optimizer, TS searches, QM/MM, DLPNO-CCSD(T), (RO)-DLPNO pert. Triples
   Tobias Risthaus        : Range-separated hybrids, TD-DFT gradient, RPA, STAB
   Michael Roemelt        : Original ROCIS implementation
   Masaaki Saitow         : Open-shell DLPNO-CCSD energy and density
   Barbara Sandhoefer     : DKH picture change effects
   Avijit Sen             : IP-ROCIS
   Kantharuban Sivalingam : CASSCF convergence, NEVPT2, FIC-MRCI
   Bernardo de Souza      : ESD, SOC TD-DFT
   Georgi Stoychev        : AutoAux, RI-MP2 NMR, DLPNO-MP2 response
   Willem Van den Heuvel  : Paramagnetic NMR
   Boris Wezisla          : Elementary symmetry handling
   Frank Wennmohs         : Technical directorship


 We gratefully acknowledge several colleagues who have allowed us to
 interface, adapt or use parts of their codes:
   Stefan Grimme, W. Hujo, H. Kruse, P. Pracht,  : VdW corrections, initial TS optimization,
                  C. Bannwarth, S. Ehlert          DFT functionals, gCP, sTDA/sTD-DF
   Ed Valeev, F. Pavosevic, A. Kumar             : LibInt (2-el integral package), F12 methods
   Garnet Chan, S. Sharma, J. Yang, R. Olivares  : DMRG
   Ulf Ekstrom                                   : XCFun DFT Library
   Mihaly Kallay                                 : mrcc  (arbitrary order and MRCC methods)
   Jiri Pittner, Ondrej Demel                    : Mk-CCSD
   Frank Weinhold                                : gennbo (NPA and NBO analysis)
   Christopher J. Cramer and Donald G. Truhlar   : smd solvation model
   Lars Goerigk                                  : TD-DFT with DH, B97 family of functionals
   V. Asgeirsson, H. Jonsson                     : NEB implementation
   FAccTs GmbH                                   : IRC, NEB, NEB-TS, DLPNO-Multilevel, CI-OPT
                                                   MM, QMMM, 2- and 3-layer-ONIOM, Crystal-QMMM,
                                                   LR-CPCM, SF, NACMEs, symmetry and pop. for TD-DFT,
                                                   nearIR, NL-DFT gradient (VV10), updates on ESD,
                                                   ML-optimized integration grids
   S Lehtola, MJT Oliveira, MAL Marques          : LibXC Library
   Liviu Ungur et al                             : ANISO software


 Your calculation uses the libint2 library for the computation of 2-el integrals
 For citations please refer to: http://libint.valeyev.net

 Your ORCA version has been built with support for libXC version: 5.1.0
 For citations please refer to: https://tddft.org/programs/libxc/

 This ORCA versions uses:
   CBLAS   interface :  Fast vector & matrix operations
   LAPACKE interface :  Fast linear algebra routines
   SCALAPACK package :  Parallel linear algebra routines
   Shared memory     :  Shared parallel matrices
   BLAS/LAPACK       :  OpenBLAS 0.3.15  USE64BITINT DYNAMIC_ARCH NO_AFFINITY SkylakeX SINGLE_THREADED
        Core in use  :  SkylakeX
   Copyright (c) 2011-2014, The OpenBLAS Project


Your calculation utilizes the atom-pairwise dispersion correction
with the Becke-Johnson damping scheme (D3BJ)
Cite in your paper:
S.Grimme, S.Ehrlich, L.Goerigk, J Comput Chem, (2011), 32, 1456–1465 
S.Grimme, J.Antony, S.Ehrlich and H.Krieg, J.Chem.Phys., 132, (2010), 154104 
   

Your calculation utilizes the SMD solvation module
Please cite in your paper:
A.V. Marenich, C.J. Cramer, D.G. Truhlar J. Phys. Chem. B, 113, (2009), 6378 

================================================================================

----- Orbital basis set information -----
Your calculation utilizes the basis: def2-TZVP
   F. Weigend and R. Ahlrichs, Phys. Chem. Chem. Phys. 7, 3297 (2005).

----- AuxJ basis set information -----
Your calculation utilizes the auxiliary basis: def2/J
   F. Weigend, Phys. Chem. Chem. Phys. 8, 1057 (2006).

================================================================================
                                        WARNINGS
                       Please study these warnings very carefully!
================================================================================


WARNING: Geometry Optimization
  ===> : Switching off AutoStart
         For restart on a previous wavefunction, please use MOREAD

INFO   : the flag for use of the SHARK integral package has been found!

================================================================================
                                       INPUT FILE
================================================================================
NAME = /burg/berkelbach/users/eav2136/projects/peroxide_dissociation/04_solvated_radical/dmso_peroxide/dmso_peroxide_opt.inp
|  1> ! UKS PBE0 def2-TZVP def2/J RIJCOSX D3BJ TIGHTSCF Opt CPCM PAL8
|  2> %maxcore 5000
|  3> %cpcm
|  4> smd true
|  5> SMDsolvent "DMSO"
|  6> end
|  7> * xyz 0 1
|  8>  C -0.07425707479814 6.45007760366319 3.54636897867849
|  9>  S 1.48979584793712 6.08048225687873 2.75598260255209
| 10>  C 1.14936654141856 4.63662227087222 1.83369205968326
| 11>  C -0.09136557109480 4.00305286554088 1.79338352444578
| 12>  C -0.25826928718407 2.84269542505768 1.05936282240646
| 13>  C 0.80050967676942 2.30271389692801 0.33923873907232
| 14>  C 2.02875697338567 2.96040825022008 0.34201900047512
| 15>  C 2.20764771123846 4.10330343094754 1.09121055149825
| 16>  C 0.66254428710301 1.09941809961861 -0.50690159852297
| 17>  O 0.00000000000000 0.00000000000000 0.00000000000000
| 18>  O 1.06713866538631 0.98717129960580 -1.62357736506780
| 19>  O 0.00000000000000 0.00000000000000 1.41527284498687
| 20>  C -1.27388770944479 0.00000000000000 1.91590645535523
| 21>  C -1.22211457253867 0.06642777988277 3.38831477989974
| 22>  O -2.25742922897412 -0.02585779042736 1.23875652957256
| 23>  C -2.41543940252313 -0.12289611375011 4.08595252694906
| 24>  C -2.44195923478874 -0.03437680070658 5.45887710053507
| 25>  C -1.27275068522395 0.25496212808386 6.17298493884884
| 26>  C -0.08177795586127 0.45060655108151 5.47518008098465
| 27>  C -0.05890441770979 0.35440376081578 4.09544628781756
| 28>  S -1.42666733932306 0.34986111841343 7.90788531117200
| 29>  C 0.24316058065577 0.68495422113854 8.46194522255982
| 30>  H 0.10416325535368 7.34607684664392 4.14087383255362
| 31>  H -0.38882275224257 5.64387294862163 4.21002028523424
| 32>  H -0.85323854703301 6.66443357654391 2.81385647784552
| 33>  H -0.93700004363157 4.40513362395569 2.33421606140266
| 34>  H -1.23507439683237 2.37497021944690 1.02749021968162
| 35>  H 2.84544686618639 2.55882587909200 -0.24576673820719
| 36>  H 3.17295340310622 4.59670965109571 1.10248346369500
| 37>  H -3.31769085302541 -0.33900022625314 3.52707230389961
| 38>  H -3.37188538809726 -0.18808364875198 5.99464715790180
| 39>  H 0.83479761044422 0.68252071425859 5.99988733430662
| 40>  H 0.87046926144621 0.51883617942438 3.56602510045047
| 41>  H 0.18454114424639 0.73729393679500 9.54909076814075
| 42>  H 0.60864534290486 1.64029462399245 8.08374213903351
| 43>  H 0.92507514742305 -0.11949528816653 8.18458994466104
| 44> *
| 45> 
| 46>                          ****END OF INPUT****
================================================================================

                       *****************************
                       * Geometry Optimization Run *
                       *****************************

Geometry optimization settings:
Update method            Update   .... BFGS
Choice of coordinates    CoordSys .... Z-matrix Internals
Initial Hessian          InHess   .... Almoef's Model

Convergence Tolerances:
Energy Change            TolE     ....  5.0000e-06 Eh
Max. Gradient            TolMAXG  ....  3.0000e-04 Eh/bohr
RMS Gradient             TolRMSG  ....  1.0000e-04 Eh/bohr
Max. Displacement        TolMAXD  ....  4.0000e-03 bohr
RMS Displacement         TolRMSD  ....  2.0000e-03 bohr
Strict Convergence                ....  False
------------------------------------------------------------------------------
                        ORCA OPTIMIZATION COORDINATE SETUP
------------------------------------------------------------------------------

The optimization will be done in new redundant internal coordinates
Making redundant internal coordinates   ...  (new redundants) done
Evaluating the initial hessian          ...  (Almloef) done
Evaluating the coordinates              ...  done
Calculating the B-matrix                .... done
Calculating the G-matrix                .... done
Diagonalizing the G-matrix              .... done
Small eigenvalue found = 6.813e-04
Small eigenvalue found = 1.847e-03
Small eigenvalue found = 4.132e-03
Small eigenvalue found = 1.197e-02
Small eigenvalue found = 1.299e-02
Small eigenvalue found = 2.647e-02
The first mode is                       ....   64
The number of degrees of freedom        ....  102

    -----------------------------------------------------------------
                    Redundant Internal Coordinates


    -----------------------------------------------------------------
         Definition                    Initial Value    Approx d2E/dq
    -----------------------------------------------------------------
      1. B(S   1,C   0)                  1.7910         0.386175   
      2. B(C   2,S   1)                  1.7468         0.454240   
      3. B(C   3,C   2)                  1.3937         0.616320   
      4. B(C   4,C   3)                  1.3831         0.640745   
      5. B(C   5,C   4)                  1.3897         0.625563   
      6. B(C   6,C   5)                  1.3933         0.617369   
      7. B(C   7,C   2)                  1.3985         0.605696   
      8. B(C   7,C   6)                  1.3782         0.652421   
      9. B(C   8,C   5)                  1.4775         0.453096   
     10. B(O   9,C   8)                  1.3801         0.580356   
     11. B(O  10,C   8)                  1.1930         1.153901   
     12. B(O  11,O   9)                  1.4153         0.456763   
     13. B(C  12,O  11)                  1.3687         0.605075   
     14. B(C  13,C  12)                  1.4748         0.457532   
     15. B(O  14,C  12)                  1.1944         1.148067   
     16. B(C  15,C  13)                  1.3952         0.612988   
     17. B(C  16,C  15)                  1.3760         0.657696   
     18. B(C  17,C  16)                  1.4003         0.601695   
     19. B(C  18,C  17)                  1.3941         0.615367   
     20. B(C  19,C  18)                  1.3833         0.640430   
     21. B(C  19,C  13)                  1.3914         0.621567   
     22. B(S  20,C  17)                  1.7443         0.458402   
     23. B(C  21,S  20)                  1.7910         0.386167   
     24. B(H  22,C   0)                  1.0900         0.360109   
     25. B(H  23,C   0)                  1.0906         0.359342   
     26. B(H  24,C   0)                  1.0906         0.359351   
     27. B(H  25,C   3)                  1.0813         0.371759   
     28. B(H  26,C   4)                  1.0835         0.368828   
     29. B(H  27,C   6)                  1.0834         0.368946   
     30. B(H  28,C   7)                  1.0842         0.367916   
     31. B(H  29,C  15)                  1.0831         0.369344   
     32. B(H  30,C  16)                  1.0842         0.367887   
     33. B(H  31,C  18)                  1.0813         0.371793   
     34. B(H  32,C  19)                  1.0822         0.370628   
     35. B(H  33,C  21)                  1.0900         0.360124   
     36. B(H  34,C  21)                  1.0905         0.359378   
     37. B(H  35,C  21)                  1.0904         0.359511   
     38. A(H  22,C   0,H  23)          108.8436         0.290744   
     39. A(H  22,C   0,H  24)          108.7656         0.290746   
     40. A(S   1,C   0,H  24)          111.5879         0.342618   
     41. A(S   1,C   0,H  23)          111.5859         0.342616   
     42. A(H  23,C   0,H  24)          110.3658         0.290648   
     43. A(S   1,C   0,H  22)          105.5091         0.342738   
     44. A(C   0,S   1,C   2)          103.4970         0.419917   
     45. A(C   3,C   2,C   7)          119.0102         0.431786   
     46. A(S   1,C   2,C   3)          124.3692         0.432719   
     47. A(S   1,C   2,C   7)          116.6202         0.431369   
     48. A(C   2,C   3,C   4)          120.2744         0.436178   
     49. A(C   4,C   3,H  25)          118.8821         0.356807   
     50. A(C   2,C   3,H  25)          120.8433         0.354461   
     51. A(C   5,C   4,H  26)          120.2581         0.354880   
     52. A(C   3,C   4,H  26)          119.1145         0.356327   
     53. A(C   3,C   4,C   5)          120.6005         0.437350   
     54. A(C   4,C   5,C   6)          119.1567         0.434432   
     55. A(C   4,C   5,C   8)          122.8259         0.411072   
     56. A(C   6,C   5,C   8)          117.8994         0.410112   
     57. A(C   7,C   6,H  27)          120.2952         0.357442   
     58. A(C   5,C   6,H  27)          119.2412         0.354107   
     59. A(C   5,C   6,C   7)          120.4618         0.437734   
     60. A(C   6,C   7,H  28)          119.9087         0.357272   
     61. A(C   2,C   7,H  28)          119.6508         0.352797   
     62. A(C   2,C   7,C   6)          120.4398         0.436231   
     63. A(O   9,C   8,O  10)          115.5727         0.473849   
     64. A(C   5,C   8,O  10)          125.5219         0.455899   
     65. A(C   5,C   8,O   9)          118.8999         0.403044   
     66. A(C   8,O   9,O  11)          111.5490         0.398410   
     67. A(O   9,O  11,C  12)          111.4547         0.401345   
     68. A(C  13,C  12,O  14)          126.5770         0.456288   
     69. A(O  11,C  12,O  14)          123.9896         0.477054   
     70. A(O  11,C  12,C  13)          109.4203         0.406723   
     71. A(C  12,C  13,C  19)          123.0966         0.411315   
     72. A(C  15,C  13,C  19)          119.2748         0.433376   
     73. A(C  12,C  13,C  15)          117.5858         0.410303   
     74. A(C  16,C  15,H  29)          120.7715         0.357997   
     75. A(C  13,C  15,H  29)          118.7871         0.353745   
     76. A(C  13,C  15,C  16)          120.4413         0.437808   
     77. A(C  17,C  16,H  30)          119.5691         0.352397   
     78. A(C  15,C  16,H  30)          120.0309         0.357757   
     79. A(C  15,C  16,C  17)          120.3999         0.436343   
     80. A(C  16,C  17,S  20)          116.4104         0.431562   
     81. A(C  18,C  17,S  20)          124.4423         0.433309   
     82. A(C  16,C  17,C  18)          119.1469         0.431152   
     83. A(C  17,C  18,C  19)          120.2393         0.436018   
     84. A(C  19,C  18,H  31)          119.0068         0.356782   
     85. A(C  17,C  18,H  31)          120.7535         0.354374   
     86. A(C  13,C  19,C  18)          120.4962         0.436806   
     87. A(C  18,C  19,H  32)          119.4465         0.356592   
     88. A(C  13,C  19,H  32)          120.0518         0.354788   
     89. A(C  17,S  20,C  21)          103.6272         0.420599   
     90. A(H  34,C  21,H  35)          110.3939         0.290673   
     91. A(H  33,C  21,H  35)          108.8290         0.290768   
     92. A(S  20,C  21,H  35)          111.4899         0.342642   
     93. A(H  33,C  21,H  34)          108.7753         0.290751   
     94. A(S  20,C  21,H  34)          111.6593         0.342620   
     95. A(S  20,C  21,H  33)          105.5095         0.342739   
     96. D(C   2,S   1,C   0,H  22)    179.5234         0.003898   
     97. D(C   2,S   1,C   0,H  23)     61.4721         0.003898   
     98. D(C   2,S   1,C   0,H  24)    -62.5176         0.003898   
     99. D(C   3,C   2,S   1,C   0)      0.0768         0.004531   
    100. D(C   7,C   2,S   1,C   0)    179.8441         0.004531   
    101. D(C   4,C   3,C   2,C   7)      1.8479         0.026266   
    102. D(C   4,C   3,C   2,S   1)   -178.3900         0.026266   
    103. D(H  25,C   3,C   2,C   7)   -178.3097         0.026266   
    104. D(H  25,C   3,C   2,S   1)      1.4524         0.026266   
    105. D(H  26,C   4,C   3,H  25)      1.1825         0.028529   
    106. D(H  26,C   4,C   3,C   2)   -178.9720         0.028529   
    107. D(C   5,C   4,C   3,H  25)    179.3028         0.028529   
    108. D(C   5,C   4,C   3,C   2)     -0.8517         0.028529   
    109. D(C   6,C   5,C   4,H  26)    176.7603         0.027109   
    110. D(C   6,C   5,C   4,C   3)     -1.3385         0.027109   
    111. D(C   8,C   5,C   4,C   3)   -177.3042         0.027109   
    112. D(C   8,C   5,C   4,H  26)      0.7946         0.027109   
    113. D(H  27,C   6,C   5,C   8)     -1.7852         0.026361   
    114. D(H  27,C   6,C   5,C   4)   -177.9495         0.026361   
    115. D(C   7,C   6,C   5,C   8)    178.6982         0.026361   
    116. D(C   7,C   6,C   5,C   4)      2.5338         0.026361   
    117. D(H  28,C   7,C   6,H  27)     -0.7379         0.029652   
    118. D(H  28,C   7,C   6,C   5)    178.7736         0.029652   
    119. D(C   2,C   7,C   6,H  27)    178.9472         0.029652   
    120. D(C   2,C   7,C   6,C   5)     -1.5413         0.029652   
    121. D(H  28,C   7,C   2,C   3)    179.0287         0.025317   
    122. D(H  28,C   7,C   2,S   1)     -0.7516         0.025317   
    123. D(C   6,C   7,C   2,C   3)     -0.6572         0.025317   
    124. D(C   6,C   7,C   2,S   1)    179.5625         0.025317   
    125. D(O   9,C   8,C   5,C   6)    137.7156         0.013991   
    126. D(O   9,C   8,C   5,C   4)    -46.2708         0.013991   
    127. D(O  10,C   8,C   5,C   6)    -43.1749         0.013991   
    128. D(O  10,C   8,C   5,C   4)    132.8388         0.013991   
    129. D(O  11,O   9,C   8,O  10)    157.9229         0.024498   
    130. D(O  11,O   9,C   8,C   5)    -22.8806         0.024498   
    131. D(C  12,O  11,O   9,C   8)    121.0745         0.015467   
    132. D(O  14,C  12,O  11,O   9)      1.4962         0.026770   
    133. D(C  13,C  12,O  11,O   9)   -177.2626         0.026770   
    134. D(C  19,C  13,C  12,O  14)   -167.0428         0.014262   
    135. D(C  19,C  13,C  12,O  11)     11.6757         0.014262   
    136. D(C  15,C  13,C  12,O  14)     10.5550         0.014262   
    137. D(C  15,C  13,C  12,O  11)   -170.7265         0.014262   
    138. D(H  29,C  15,C  13,C  19)    179.5255         0.025966   
    139. D(H  29,C  15,C  13,C  12)      1.8326         0.025966   
    140. D(C  16,C  15,C  13,C  19)     -0.4006         0.025966   
    141. D(C  16,C  15,C  13,C  12)   -178.0935         0.025966   
    142. D(H  30,C  16,C  15,H  29)      0.4119         0.030169   
    143. D(H  30,C  16,C  15,C  13)   -179.6635         0.030169   
    144. D(C  17,C  16,C  15,H  29)   -179.5362         0.030169   
    145. D(C  17,C  16,C  15,C  13)      0.3884         0.030169   
    146. D(S  20,C  17,C  16,H  30)     -0.2280         0.024966   
    147. D(S  20,C  17,C  16,C  15)    179.7203         0.024966   
    148. D(C  18,C  17,C  16,H  30)    179.9814         0.024966   
    149. D(C  18,C  17,C  16,C  15)     -0.0703         0.024966   
    150. D(H  31,C  18,C  17,S  20)     -0.2266         0.026180   
    151. D(H  31,C  18,C  17,C  16)    179.5460         0.026180   
    152. D(C  19,C  18,C  17,S  20)    179.9944         0.026180   
    153. D(C  19,C  18,C  17,C  16)     -0.2330         0.026180   
    154. D(C  13,C  19,C  18,C  17)      0.2195         0.028499   
    155. D(H  32,C  19,C  13,C  15)   -179.0463         0.026742   
    156. D(H  32,C  19,C  13,C  12)     -1.4873         0.026742   
    157. D(C  18,C  19,C  13,C  15)      0.0962         0.026742   
    158. D(C  18,C  19,C  13,C  12)    177.6553         0.026742   
    159. D(H  32,C  19,C  18,H  31)     -0.4157         0.028499   
    160. D(H  32,C  19,C  18,C  17)    179.3672         0.028499   
    161. D(C  13,C  19,C  18,H  31)   -179.5634         0.028499   
    162. D(C  21,S  20,C  17,C  18)     -1.6462         0.004589   
    163. D(C  21,S  20,C  17,C  16)    178.5756         0.004589   
    164. D(H  35,C  21,S  20,C  17)    -61.2749         0.003898   
    165. D(H  34,C  21,S  20,C  17)     62.7331         0.003898   
    166. D(H  33,C  21,S  20,C  17)   -179.2586         0.003898   
    -----------------------------------------------------------------

Number of atoms                         .... 36
Number of degrees of freedom            .... 166

         *************************************************************
         *                GEOMETRY OPTIMIZATION CYCLE   1            *
         *************************************************************
---------------------------------
CARTESIAN COORDINATES (ANGSTROEM)
---------------------------------
  C     -0.074257    6.450078    3.546369
  S      1.489796    6.080482    2.755983
  C      1.149367    4.636622    1.833692
  C     -0.091366    4.003053    1.793384
  C     -0.258269    2.842695    1.059363
  C      0.800510    2.302714    0.339239
  C      2.028757    2.960408    0.342019
  C      2.207648    4.103303    1.091211
  C      0.662544    1.099418   -0.506902
  O      0.000000    0.000000    0.000000
  O      1.067139    0.987171   -1.623577
  O      0.000000    0.000000    1.415273
  C     -1.273888    0.000000    1.915906
  C     -1.222115    0.066428    3.388315
  O     -2.257429   -0.025858    1.238757
  C     -2.415439   -0.122896    4.085953
  C     -2.441959   -0.034377    5.458877
  C     -1.272751    0.254962    6.172985
  C     -0.081778    0.450607    5.475180
  C     -0.058904    0.354404    4.095446
  S     -1.426667    0.349861    7.907885
  C      0.243161    0.684954    8.461945
  H      0.104163    7.346077    4.140874
  H     -0.388823    5.643873    4.210020
  H     -0.853239    6.664434    2.813856
  H     -0.937000    4.405134    2.334216
  H     -1.235074    2.374970    1.027490
  H      2.845447    2.558826   -0.245767
  H      3.172953    4.596710    1.102483
  H     -3.317691   -0.339000    3.527072
  H     -3.371885   -0.188084    5.994647
  H      0.834798    0.682521    5.999887
  H      0.870469    0.518836    3.566025
  H      0.184541    0.737294    9.549091
  H      0.608645    1.640295    8.083742
  H      0.925075   -0.119495    8.184590

----------------------------
CARTESIAN COORDINATES (A.U.)
----------------------------
  NO LB      ZA    FRAG     MASS         X           Y           Z
   0 C     6.0000    0    12.011   -0.140326   12.188880    6.701666
   1 S    16.0000    0    32.060    2.815306   11.490446    5.208052
   2 C     6.0000    0    12.011    2.171988    8.761946    3.465176
   3 C     6.0000    0    12.011   -0.172656    7.564674    3.389004
   4 C     6.0000    0    12.011   -0.488058    5.371916    2.001906
   5 C     6.0000    0    12.011    1.512744    4.351499    0.641068
   6 C     6.0000    0    12.011    3.833795    5.594361    0.646322
   7 C     6.0000    0    12.011    4.171850    7.754120    2.062089
   8 C     6.0000    0    12.011    1.252027    2.077599   -0.957905
   9 O     8.0000    0    15.999    0.000000    0.000000    0.000000
  10 O     8.0000    0    15.999    2.016600    1.865483   -3.068117
  11 O     8.0000    0    15.999    0.000000    0.000000    2.674478
  12 C     6.0000    0    12.011   -2.407299    0.000000    3.620538
  13 C     6.0000    0    12.011   -2.309462    0.125530    6.402987
  14 O     8.0000    0    15.999   -4.265923   -0.048864    2.340911
  15 C     6.0000    0    12.011   -4.564519   -0.232240    7.721331
  16 C     6.0000    0    12.011   -4.614634   -0.064963   10.315783
  17 C     6.0000    0    12.011   -2.405150    0.481809   11.665251
  18 C     6.0000    0    12.011   -0.154538    0.851523   10.346591
  19 C     6.0000    0    12.011   -0.111313    0.669726    7.739272
  20 S    16.0000    0    32.060   -2.696011    0.661142   14.943738
  21 C     6.0000    0    12.011    0.459507    1.294376   15.990759
  22 H     1.0000    0     1.008    0.196840   13.882073    7.825117
  23 H     1.0000    0     1.008   -0.734769   10.665374    7.955785
  24 H     1.0000    0     1.008   -1.612387   12.593954    5.317418
  25 H     1.0000    0     1.008   -1.770673    8.324496    4.411029
  26 H     1.0000    0     1.008   -2.333952    4.488043    1.941675
  27 H     1.0000    0     1.008    5.377115    4.835480   -0.464432
  28 H     1.0000    0     1.008    5.996013    8.686522    2.083392
  29 H     1.0000    0     1.008   -6.269527   -0.640618    6.665201
  30 H     1.0000    0     1.008   -6.371940   -0.355427   11.328241
  31 H     1.0000    0     1.008    1.577539    1.289777   11.338144
  32 H     1.0000    0     1.008    1.644949    0.980458    6.738811
  33 H     1.0000    0     1.008    0.348732    1.393284   18.045166
  34 H     1.0000    0     1.008    1.150173    3.099708   15.276059
  35 H     1.0000    0     1.008    1.748139   -0.225813   15.466634

--------------------------------
INTERNAL COORDINATES (ANGSTROEM)
--------------------------------
 C      0   0   0     0.000000000000     0.00000000     0.00000000
 S      1   0   0     1.790969818017     0.00000000     0.00000000
 C      2   1   0     1.746780929995   103.49703222     0.00000000
 C      3   2   1     1.393718459520   124.36918170     0.07682297
 C      4   3   2     1.383138688329   120.27439762   181.60997218
 C      5   4   3     1.389666017657   120.60050203   359.14829865
 C      6   5   4     1.393255545064   119.15672375   358.66151732
 C      7   6   5     1.378223229504   120.46180539     2.53383799
 C      6   5   4     1.477466986255   122.82593719   182.69580816
 O      9   6   5     1.380084896203   118.89987975   313.72924568
 O      9   6   5     1.193004913083   125.52191253   132.83876530
 O     10   9   6     1.415272844987   111.54903739   337.11941713
 C     12  10   9     1.368730765383   111.45466078   121.07450275
 C     13  12  10     1.474815033092   109.42032141   182.73741157
 O     13  12  10     1.194384598005   123.98959865     1.49620750
 C     14  13  12     1.395193933712   117.58575536   189.27346256
 C     16  14  13     1.376030833609   120.44129595   181.90648253
 C     17  16  14     1.400255566970   120.39992501     0.38844050
 C     18  17  16     1.394139305089   119.14686446   359.92970699
 C     19  18  17     1.383272755320   120.23932774   359.76697987
 S     18  17  16     1.744297983907   116.41043178   179.72028820
 C     21  18  17     1.790976006328   103.62720090   178.57561880
 H      1   2   3     1.089992880213   105.50910599   179.52342869
 H      1   2   3     1.090573504139   111.58592171    61.47211732
 H      1   2   3     1.090566449636   111.58785041   297.48242808
 H      4   3   2     1.081326236832   120.84329981     1.45240478
 H      5   4   3     1.083480942612   119.11451180   181.02803207
 H      7   6   5     1.083394137146   119.24119758   182.05045369
 H      8   7   6     1.084154903776   119.90872766   178.77361985
 H     16  14  13     1.083100074365   118.78711222     1.83264212
 H     17  16  14     1.084176184997   120.03093279   180.33653865
 H     19  18  17     1.081301368500   120.75351253   179.54600540
 H     20  19  18     1.082155372130   119.44648422   179.36717552
 H     22  21  18     1.089982165651   105.50954915   180.74135630
 H     22  21  18     1.090546637769   111.65925285    62.73308778
 H     22  21  18     1.090445981958   111.48990618   298.72507539

---------------------------
INTERNAL COORDINATES (A.U.)
---------------------------
 C      0   0   0     0.000000000000     0.00000000     0.00000000
 S      1   0   0     3.384442470171     0.00000000     0.00000000
 C      2   1   0     3.300937573646   103.49703222     0.00000000
 C      3   2   1     2.633746196283   124.36918170     0.07682297
 C      4   3   2     2.613753326172   120.27439762   181.60997218
 C      5   4   3     2.626088190988   120.60050203   359.14829865
 C      6   5   4     2.632871414738   119.15672375   358.66151732
 C      7   6   5     2.604464455171   120.46180539     2.53383799
 C      6   5   4     2.792007975932   122.82593719   182.69580816
 O      9   6   5     2.607982495384   118.89987975   313.72924568
 O      9   6   5     2.254452562149   125.52191253   132.83876530
 O     10   9   6     2.674478081801   111.54903739   337.11941713
 C     12  10   9     2.586526297646   111.45466078   121.07450275
 C     13  12  10     2.786996510733   109.42032141   182.73741157
 O     13  12  10     2.257059788803   123.98959865     1.49620750
 C     14  13  12     2.636534438423   117.58575536   189.27346256
 C     16  14  13     2.600321427352   120.44129595   181.90648253
 C     17  16  14     2.646099539072   120.39992501     0.38844050
 C     18  17  16     2.634541479154   119.14686446   359.92970699
 C     19  18  17     2.614006676069   120.23932774   359.76697987
 S     18  17  16     3.296245485535   116.41043178   179.72028820
 C     21  18  17     3.384454164384   103.62720090   178.57561880
 H      1   2   3     2.059788031526   105.50910599   179.52342869
 H      1   2   3     2.060885251733   111.58592171    61.47211732
 H      1   2   3     2.060871920655   111.58785041   297.48242808
 H      4   3   2     2.043410449036   120.84329981     1.45240478
 H      5   4   3     2.047482252859   119.11451180   181.02803207
 H      7   6   5     2.047318214302   119.24119758   182.05045369
 H      8   7   6     2.048755854885   119.90872766   178.77361985
 H     16  14  13     2.046762516180   118.78711222     1.83264212
 H     17  16  14     2.048796070563   120.03093279   180.33653865
 H     19  18  17     2.043363454698   120.75351253   179.54600540
 H     20  19  18     2.044977287678   119.44648422   179.36717552
 H     22  21  18     2.059767783938   105.50954915   180.74135630
 H     22  21  18     2.060834481653   111.65925285    62.73308778
 H     22  21  18     2.060644269736   111.48990618   298.72507539

---------------------
BASIS SET INFORMATION
---------------------
There are 4 groups of distinct atoms

 Group   1 Type C   : 11s6p2d1f contracted to 5s3p2d1f pattern {62111/411/11/1}
 Group   2 Type S   : 14s9p3d1f contracted to 5s5p2d1f pattern {73211/51111/21/1}
 Group   3 Type O   : 11s6p2d1f contracted to 5s3p2d1f pattern {62111/411/11/1}
 Group   4 Type H   : 5s1p contracted to 3s1p pattern {311/1}

Atom   0C    basis set group =>   1
Atom   1S    basis set group =>   2
Atom   2C    basis set group =>   1
Atom   3C    basis set group =>   1
Atom   4C    basis set group =>   1
Atom   5C    basis set group =>   1
Atom   6C    basis set group =>   1
Atom   7C    basis set group =>   1
Atom   8C    basis set group =>   1
Atom   9O    basis set group =>   3
Atom  10O    basis set group =>   3
Atom  11O    basis set group =>   3
Atom  12C    basis set group =>   1
Atom  13C    basis set group =>   1
Atom  14O    basis set group =>   3
Atom  15C    basis set group =>   1
Atom  16C    basis set group =>   1
Atom  17C    basis set group =>   1
Atom  18C    basis set group =>   1
Atom  19C    basis set group =>   1
Atom  20S    basis set group =>   2
Atom  21C    basis set group =>   1
Atom  22H    basis set group =>   4
Atom  23H    basis set group =>   4
Atom  24H    basis set group =>   4
Atom  25H    basis set group =>   4
Atom  26H    basis set group =>   4
Atom  27H    basis set group =>   4
Atom  28H    basis set group =>   4
Atom  29H    basis set group =>   4
Atom  30H    basis set group =>   4
Atom  31H    basis set group =>   4
Atom  32H    basis set group =>   4
Atom  33H    basis set group =>   4
Atom  34H    basis set group =>   4
Atom  35H    basis set group =>   4
---------------------------------
AUXILIARY/J BASIS SET INFORMATION
---------------------------------
There are 4 groups of distinct atoms

 Group   1 Type C   : 12s5p4d2f1g contracted to 6s4p3d1f1g pattern {711111/2111/211/2/1}
 Group   2 Type S   : 14s5p5d2f1g contracted to 8s4p3d1f1g pattern {71111111/2111/311/2/1}
 Group   3 Type O   : 12s5p4d2f1g contracted to 6s4p3d1f1g pattern {711111/2111/211/2/1}
 Group   4 Type H   : 5s2p1d contracted to 3s1p1d pattern {311/2/1}

Atom   0C    basis set group =>   1
Atom   1S    basis set group =>   2
Atom   2C    basis set group =>   1
Atom   3C    basis set group =>   1
Atom   4C    basis set group =>   1
Atom   5C    basis set group =>   1
Atom   6C    basis set group =>   1
Atom   7C    basis set group =>   1
Atom   8C    basis set group =>   1
Atom   9O    basis set group =>   3
Atom  10O    basis set group =>   3
Atom  11O    basis set group =>   3
Atom  12C    basis set group =>   1
Atom  13C    basis set group =>   1
Atom  14O    basis set group =>   3
Atom  15C    basis set group =>   1
Atom  16C    basis set group =>   1
Atom  17C    basis set group =>   1
Atom  18C    basis set group =>   1
Atom  19C    basis set group =>   1
Atom  20S    basis set group =>   2
Atom  21C    basis set group =>   1
Atom  22H    basis set group =>   4
Atom  23H    basis set group =>   4
Atom  24H    basis set group =>   4
Atom  25H    basis set group =>   4
Atom  26H    basis set group =>   4
Atom  27H    basis set group =>   4
Atom  28H    basis set group =>   4
Atom  29H    basis set group =>   4
Atom  30H    basis set group =>   4
Atom  31H    basis set group =>   4
Atom  32H    basis set group =>   4
Atom  33H    basis set group =>   4
Atom  34H    basis set group =>   4
Atom  35H    basis set group =>   4


           ************************************************************
           *        Program running with 8 parallel MPI-processes     *
           *              working on a common directory               *
           ************************************************************
------------------------------------------------------------------------------
                           ORCA GTO INTEGRAL CALCULATION
                           -- RI-GTO INTEGRALS CHOSEN --
------------------------------------------------------------------------------
------------------------------------------------------------------------------
                   ___                                                        
                  /   \      - P O W E R E D   B Y -                         
                 /     \                                                     
                 |  |  |   _    _      __       _____    __    __             
                 |  |  |  | |  | |    /  \     |  _  \  |  |  /  |          
                  \  \/   | |  | |   /    \    | | | |  |  | /  /          
                 / \  \   | |__| |  /  /\  \   | |_| |  |  |/  /          
                |  |  |   |  __  | /  /__\  \  |    /   |      \           
                |  |  |   | |  | | |   __   |  |    \   |  |\   \          
                \     /   | |  | | |  |  |  |  | |\  \  |  | \   \       
                 \___/    |_|  |_| |__|  |__|  |_| \__\ |__|  \__/        
                                                                              
                      - O R C A' S   B I G   F R I E N D -                    
                                      &                                       
                       - I N T E G R A L  F E E D E R -                       
                                                                              
 v1 FN, 2020, v2 2021                                                         
------------------------------------------------------------------------------


Reading SHARK input file /burg/berkelbach/users/eav2136/projects/peroxide_dissociation/04_solvated_radical/dmso_peroxide/dmso_peroxide_opt.SHARKINP.tmp ... ok
----------------------
SHARK INTEGRAL PACKAGE
----------------------

Number of atoms                             ...     36
Number of basis functions                   ...    778
Number of shells                            ...    302
Maximum angular momentum                    ...      3
Integral batch strategy                     ... SHARK/LIBINT Hybrid
RI-J (if used) integral strategy            ... SPLIT-RIJ (Revised 2003 algorithm where possible)
Printlevel                                  ...      1
Contraction scheme used                     ... SEGMENTED contraction
Coulomb Range Separation                    ... NOT USED
Exchange Range Separation                   ... NOT USED
Finite Nucleus Model                        ... NOT USED
Auxiliary Coulomb fitting basis             ... AVAILABLE
   # of basis functions in Aux-J            ...   1236
   # of shells in Aux-J                     ...    404
   Maximum angular momentum in Aux-J        ...      4
Auxiliary J/K fitting basis                 ... NOT available
Auxiliary Correlation fitting basis         ... NOT available
Auxiliary 'external' fitting basis          ... NOT available
Integral threshold                          ...     2.500000e-11
Primitive cut-off                           ...     2.500000e-12
Primitive pair pre-selection threshold      ...     2.500000e-12

Calculating pre-screening integrals         ... done (  0.1 sec) Dimension = 302
Organizing shell pair data                  ... done (  0.4 sec)
Shell pair information
Total number of shell pairs                 ...     45753
Shell pairs after pre-screening             ...     30707
Total number of primitive shell pairs       ...    145545
Primitive shell pairs kept                  ...     63502
          la=0 lb=0:   7523 shell pairs
          la=1 lb=0:   8937 shell pairs
          la=1 lb=1:   2674 shell pairs
          la=2 lb=0:   4331 shell pairs
          la=2 lb=1:   2602 shell pairs
          la=2 lb=2:    662 shell pairs
          la=3 lb=0:   2019 shell pairs
          la=3 lb=1:   1229 shell pairs
          la=3 lb=2:    589 shell pairs
          la=3 lb=3:    141 shell pairs

Calculating one electron integrals          ... done (  1.8 sec)
Calculating RI/J V-Matrix + Cholesky decomp.... done (  1.3 sec)
Calculating Nuclear repulsion               ... done (  0.0 sec) ENN=   1970.142246923818 Eh

SHARK setup successfully completed in   7.5 seconds

Maximum memory used throughout the entire GTOINT-calculation: 49.0 MB


           ************************************************************
           *        Program running with 8 parallel MPI-processes     *
           *              working on a common directory               *
           ************************************************************
-------------------------------------------------------------------------------
                                 ORCA SCF
-------------------------------------------------------------------------------

------------
SCF SETTINGS
------------
Hamiltonian:
 Density Functional     Method          .... DFT(GTOs)
 Exchange Functional    Exchange        .... PBE
   PBE kappa parameter   XKappa         ....  0.804000
   PBE mue parameter    XMuePBE         ....  0.219520
 Correlation Functional Correlation     .... PBE
   PBE beta parameter  CBetaPBE         ....  0.066725
 LDA part of GGA corr.  LDAOpt          .... PW91-LDA
 Gradients option       PostSCFGGA      .... off
 Hybrid DFT is turned on
   Fraction HF Exchange ScalHFX         ....  0.250000
   Scaling of DF-GGA-X  ScalDFX         ....  0.750000
   Scaling of DF-GGA-C  ScalDFC         ....  1.000000
   Scaling of DF-LDA-C  ScalLDAC        ....  1.000000
   Perturbative correction              ....  0.000000
   Density functional embedding theory  .... OFF
   NL short-range parameter             ....  6.900000
 RI-approximation to the Coulomb term is turned on
   Number of AuxJ basis functions       .... 1236
   RIJ-COSX (HFX calculated with COS-X)).... on


General Settings:
 Integral files         IntName         .... /burg/berkelbach/users/eav2136/projects/peroxide_dissociation/04_solvated_radical/dmso_peroxide/dmso_peroxide_opt
 Hartree-Fock type      HFTyp           .... UHF
 Total Charge           Charge          ....    0
 Multiplicity           Mult            ....    1
 Number of Electrons    NEL             ....  174
 Basis Dimension        Dim             ....  778
 Nuclear Repulsion      ENuc            ....   1970.1422469238 Eh

Convergence Acceleration:
 DIIS                   CNVDIIS         .... on
   Start iteration      DIISMaxIt       ....    12
   Startup error        DIISStart       ....  0.200000
   # of expansion vecs  DIISMaxEq       ....     5
   Bias factor          DIISBfac        ....   1.050
   Max. coefficient     DIISMaxC        ....  10.000
 Trust-Rad. Augm. Hess. CNVTRAH         .... auto
   Auto Start mean grad. ratio tolernc. ....  1.125000
   Auto Start start iteration           ....    20
   Auto Start num. interpolation iter.  ....    10
   Max. Number of Micro iterations      ....    16
   Max. Number of Macro iterations      .... Maxiter - #DIIS iter
   Number of Davidson start vectors     ....     2
   Converg. threshold I  (grad. norm)   ....   1.000e-05
   Converg. threshold II (energy diff.) ....   1.000e-08
   Grad. Scal. Fac. for Micro threshold ....   0.100
   Minimum threshold for Micro iter.    ....   0.010
   NR start threshold (gradient norm)   ....   0.001
   Initial trust radius                 ....   0.400
   Minimum AH scaling param. (alpha)    ....   1.000
   Maximum AH scaling param. (alpha)    .... 1000.000
   Orbital update algorithm             .... Taylor
   White noise on init. David. guess    .... on
   Maximum white noise                  ....   0.010
   Quad. conv. algorithm                .... NR
 SOSCF                  CNVSOSCF        .... off
 Level Shifting         CNVShift        .... on
   Level shift para.    LevelShift      ....    0.2500
   Turn off err/grad.   ShiftErr        ....    0.0010
 Zerner damping         CNVZerner       .... off
 Static damping         CNVDamp         .... on
   Fraction old density DampFac         ....    0.7000
   Max. Damping (<1)    DampMax         ....    0.9800
   Min. Damping (>=0)   DampMin         ....    0.0000
   Turn off err/grad.   DampErr         ....    0.1000
 Fernandez-Rico         CNVRico         .... off

SCF Procedure:
 Maximum # iterations   MaxIter         ....   125
 SCF integral mode      SCFMode         .... Direct
   Integral package                     .... SHARK and LIBINT hybrid scheme
 Reset frequency        DirectResetFreq ....    20
 Integral Threshold     Thresh          ....  2.500e-11 Eh
 Primitive CutOff       TCut            ....  2.500e-12 Eh

Convergence Tolerance:
 Convergence Check Mode ConvCheckMode   .... Total+1el-Energy
 Convergence forced     ConvForced      .... 0
 Energy Change          TolE            ....  1.000e-08 Eh
 1-El. energy change                    ....  1.000e-05 Eh
 DIIS Error             TolErr          ....  5.000e-07


Diagonalization of the overlap matrix:
Smallest eigenvalue                        ... 6.410e-06
Time for diagonalization                   ...    0.117 sec
Threshold for overlap eigenvalues          ... 1.000e-08
Number of eigenvalues below threshold      ... 0
Time for construction of square roots      ...    0.279 sec
Total time needed                          ...    0.400 sec

Time for model grid setup =    1.365 sec

------------------------------
INITIAL GUESS: MODEL POTENTIAL
------------------------------
Loading Hartree-Fock densities                     ... done
Calculating cut-offs                               ... done
Initializing the effective Hamiltonian             ... done
Setting up the integral package (SHARK)            ... done
Starting the Coulomb interaction                   ... done (   1.9 sec)
Reading the grid                                   ... done
Mapping shells                                     ... done
Starting the XC term evaluation                    ... done (   0.5 sec)
  promolecular density results
     # of electrons  =    174.001529421
     EX              =   -168.410428734
     EC              =     -6.029879073
     EX+EC           =   -174.440307808
Transforming the Hamiltonian                       ... done (   0.1 sec)
Diagonalizing the Hamiltonian                      ... done (   0.1 sec)
Back transforming the eigenvectors                 ... done (   0.0 sec)
Now organizing SCF variables                       ... done
                      ------------------
                      INITIAL GUESS DONE (   4.1 sec)
                      ------------------
-------------------
DFT GRID GENERATION
-------------------

General Integration Accuracy     IntAcc      ... 4.388
Radial Grid Type                 RadialGrid  ... OptM3 with GC (2021)
Angular Grid (max. ang.)         AngularGrid ... 4 (Lebedev-302)
Angular grid pruning method      GridPruning ... 4 (adaptive)
Weight generation scheme         WeightScheme... Becke
Basis function cutoff            BFCut       ... 1.0000e-11
Integration weight cutoff        WCut        ... 1.0000e-14
Angular grids for H and He will be reduced by one unit
Partially contracted basis set               ... off
Rotationally invariant grid construction     ... off

Total number of grid points                  ...   179155
Total number of batches                      ...     2817
Average number of points per batch           ...       63
Average number of grid points per atom       ...     4977
Time for grid setup =    1.448 sec

--------------------
COSX GRID GENERATION
--------------------

GRIDX 1
-------
General Integration Accuracy     IntAcc      ... 3.816
Radial Grid Type                 RadialGrid  ... OptM3 with GC (2021)
Angular Grid (max. ang.)         AngularGrid ... 1 (Lebedev-50)
Angular grid pruning method      GridPruning ... 4 (adaptive)
Weight generation scheme         WeightScheme... Becke
Basis function cutoff            BFCut       ... 1.0000e-11
Integration weight cutoff        WCut        ... 1.0000e-14
Angular grids for H and He will be reduced by one unit
Partially contracted basis set               ... on
Rotationally invariant grid construction     ... off

Total number of grid points                  ...    22611
Total number of batches                      ...      371
Average number of points per batch           ...       60
Average number of grid points per atom       ...      628
UseSFitting                                  ... on

GRIDX 2
-------
General Integration Accuracy     IntAcc      ... 4.020
Radial Grid Type                 RadialGrid  ... OptM3 with GC (2021)
Angular Grid (max. ang.)         AngularGrid ... 2 (Lebedev-110)
Angular grid pruning method      GridPruning ... 4 (adaptive)
Weight generation scheme         WeightScheme... Becke
Basis function cutoff            BFCut       ... 1.0000e-11
Integration weight cutoff        WCut        ... 1.0000e-14
Angular grids for H and He will be reduced by one unit
Partially contracted basis set               ... on
Rotationally invariant grid construction     ... off

Total number of grid points                  ...    49564
Total number of batches                      ...      788
Average number of points per batch           ...       62
Average number of grid points per atom       ...     1377
UseSFitting                                  ... on

GRIDX 3
-------
General Integration Accuracy     IntAcc      ... 4.338
Radial Grid Type                 RadialGrid  ... OptM3 with GC (2021)
Angular Grid (max. ang.)         AngularGrid ... 3 (Lebedev-194)
Angular grid pruning method      GridPruning ... 4 (adaptive)
Weight generation scheme         WeightScheme... Becke
Basis function cutoff            BFCut       ... 1.0000e-11
Integration weight cutoff        WCut        ... 1.0000e-14
Angular grids for H and He will be reduced by one unit
Partially contracted basis set               ... on
Rotationally invariant grid construction     ... off

Total number of grid points                  ...   109616
Total number of batches                      ...     1732
Average number of points per batch           ...       63
Average number of grid points per atom       ...     3045
UseSFitting                                  ... on

Time for X-Grid setup             =    3.279 sec


--------------------
CPCM SOLVATION MODEL
--------------------
CPCM parameters:
  Epsilon                                         ...      46.8260
  Refrac                                          ...       1.4170
  Rsolv                                           ...       1.3000
  Surface type                                    ... GAUSSIAN VDW
  Epsilon function type                           ...         CPCM
Solvent:                                     ... DMSO
SMD-CDS solvent descriptors:
  Soln                                       ...    1.4170
  Soln25                                     ...    1.4773
  Sola                                       ...    0.0000
  Solb                                       ...    0.8800
  Solg                                       ...   61.7800
  Solc                                       ...    0.0000
  Solh                                       ...    0.0000
Radii:
 Radius for C  used is    3.4960 Bohr (=   1.8500 Ang.)
 Radius for S  used is    4.7054 Bohr (=   2.4900 Ang.)
 Radius for O  used is    4.3350 Bohr (=   2.2940 Ang.)
 Radius for H  used is    2.2677 Bohr (=   1.2000 Ang.)
Calculating surface                               ...        done! (  0.0s)
GEPOL surface points                              ...         1874
GEPOL Volume                                      ...    2715.5404
GEPOL Surface-area                                ...    1360.8946
Calculating surface distance matrix               ...        done! (  0.0s)
Performing Cholesky decomposition & store         ...        done! (  0.2s)
Overall time for CPCM initialization              ...                 0.2s
--------------
SCF ITERATIONS
--------------
ITER       Energy         Delta-E        Max-DP      RMS-DP      [F,P]     Damp
               ***  Starting incremental Fock matrix formation  ***
  0  -1713.8733405578   0.000000000000 0.03454769  0.00037491  0.1406387 0.7000
  1  -1714.1250660837  -0.251725525959 0.03117080  0.00029110  0.0555986 0.7000
                               ***Turning on DIIS***
  2  -1714.2210175640  -0.095951480243 0.04893981  0.00049916  0.0176409 0.0000
  3  -1714.3803265104  -0.159308946396 0.02990566  0.00022923  0.0235044 0.0000
  4  -1714.4116561175  -0.031329607158 0.00825917  0.00008578  0.0092346 0.0000
  5  -1714.4140420371  -0.002385919541 0.00476480  0.00003792  0.0047397 0.0000
  6  -1714.4142853206  -0.000243283537 0.00146691  0.00001804  0.0005899 0.0000
               *** Restarting incremental Fock matrix formation ***
                                   *** Resetting DIIS ***
  7  -1714.4142599343   0.000025386280 0.00079683  0.00001124  0.0006454 0.0000
  8  -1714.4142556288   0.000004305528 0.00024940  0.00000181  0.0012857 0.0000
  9  -1714.4142630369  -0.000007408121 0.00029427  0.00000150  0.0001764 0.0000
 10  -1714.4142634959  -0.000000458942 0.00005117  0.00000058  0.0000448 0.0000
 11  -1714.4142635506  -0.000000054764 0.00003112  0.00000039  0.0000410 0.0000
 12  -1714.4142635780  -0.000000027366 0.00003394  0.00000032  0.0000070 0.0000
 13  -1714.4142635835  -0.000000005480 0.00004386  0.00000041  0.0000038 0.0000
 14  -1714.4142635705   0.000000013002 0.00003688  0.00000026  0.0000032 0.0000
                            ***DIIS convergence achieved***

               *****************************************************
               *                     SUCCESS                       *
               *           SCF CONVERGED AFTER  15 CYCLES          *
               *****************************************************

Old exchange energy                            =    -42.734195441 Eh
New exchange energy                            =    -42.734165942 Eh
Exchange energy change after final integration =      0.000029499 Eh
Total energy after final integration           =  -1714.414234092 Eh
Final COS-X integration done in                =    27.312 sec

SMD CDS free energy correction energy :                -4.21891     Kcal/mol
Total Energy after SMD CDS correction =             -1714.420957348 Eh

----------------
TOTAL SCF ENERGY
----------------

Total Energy       :        -1714.42095735 Eh          -46651.76598 eV

Components:
Nuclear Repulsion  :         1970.14224692 Eh           53610.29603 eV
Electronic Energy  :        -3684.56320427 Eh         -100262.06201 eV
One Electron Energy:        -6267.99333272 Eh         -170560.76973 eV
Two Electron Energy:         2583.43012845 Eh           70298.70771 eV
Max COSX asymmetry :            0.00000051 Eh               0.00001 eV
CPCM Dielectric    :           -0.02641222 Eh              -0.71871 eV
SMD CDS (Gcds)     :           -0.00672326 Eh              -0.18295 eV

Virial components:
Potential Energy   :        -3423.68802987 Eh          -93163.28762 eV
Kinetic Energy     :         1709.26707252 Eh           46511.52164 eV
Virial Ratio       :            2.00301526


DFT components:
N(Alpha)           :       86.999991442620 electrons
N(Beta)            :       86.999991442620 electrons
N(Total)           :      173.999982885241 electrons
E(X)               :     -127.855078619677 Eh       
E(C)               :       -6.031247595380 Eh       
E(XC)              :     -133.886326215057 Eh       
DFET-embed. en.    :        0.000000000000 Eh       
CPCM Solvation Model Properties:
Surface-charge          :           -0.03218671
Charge-correction       :            0.00038625 Eh               0.01051 eV
Free-energy (cav+disp)  :           -0.00672326 Eh              -0.18295 eV

---------------
SCF CONVERGENCE
---------------

  Last Energy change         ...   -2.0565e-08  Tolerance :   1.0000e-08
  Last MAX-Density change    ...    0.0000e+00  Tolerance :   1.0000e-07
  Last RMS-Density change    ...    0.0000e+00  Tolerance :   5.0000e-09
  Last DIIS Error            ...    4.4626e-07  Tolerance :   5.0000e-07

             **** THE GBW FILE WAS UPDATED (/burg/berkelbach/users/eav2136/projects/peroxide_dissociation/04_solvated_radical/dmso_peroxide/dmso_peroxide_opt.gbw) ****
             **** DENSITY /burg/berkelbach/users/eav2136/projects/peroxide_dissociation/04_solvated_radical/dmso_peroxide/dmso_peroxide_opt.scfp WAS UPDATED ****
             **** ENERGY FILE WAS UPDATED (/burg/berkelbach/users/eav2136/projects/peroxide_dissociation/04_solvated_radical/dmso_peroxide/dmso_peroxide_opt.en.tmp) ****
----------------------
UHF SPIN CONTAMINATION
----------------------

Warning: in a DFT calculation there is little theoretical justification to 
         calculate <S**2> as in Hartree-Fock theory. We will do it anyways
         but you should keep in mind that the values have only limited relevance

Expectation value of <S**2>     :     0.000000
Ideal value S*(S+1) for S=0.0   :     0.000000
Deviation                       :     0.000000

             **** THE GBW FILE WAS UPDATED (/burg/berkelbach/users/eav2136/projects/peroxide_dissociation/04_solvated_radical/dmso_peroxide/dmso_peroxide_opt.gbw) ****
             **** DENSITY /burg/berkelbach/users/eav2136/projects/peroxide_dissociation/04_solvated_radical/dmso_peroxide/dmso_peroxide_opt.scfp WAS UPDATED ****
----------------
ORBITAL ENERGIES
----------------
                 SPIN UP ORBITALS
  NO   OCC          E(Eh)            E(eV) 
   0   1.0000     -89.034452     -2422.7506 
   1   1.0000     -89.032731     -2422.7038 
   2   1.0000     -19.321757      -525.7717 
   3   1.0000     -19.320425      -525.7355 
   4   1.0000     -19.215927      -522.8920 
   5   1.0000     -19.210629      -522.7478 
   6   1.0000     -10.371636      -282.2266 
   7   1.0000     -10.367843      -282.1234 
   8   1.0000     -10.276250      -279.6310 
   9   1.0000     -10.274060      -279.5714 
  10   1.0000     -10.250728      -278.9365 
  11   1.0000     -10.249475      -278.9024 
  12   1.0000     -10.244539      -278.7681 
  13   1.0000     -10.244339      -278.7626 
  14   1.0000     -10.242675      -278.7174 
  15   1.0000     -10.242338      -278.7082 
  16   1.0000     -10.242024      -278.6996 
  17   1.0000     -10.241827      -278.6943 
  18   1.0000     -10.236991      -278.5627 
  19   1.0000     -10.236393      -278.5464 
  20   1.0000     -10.236124      -278.5391 
  21   1.0000     -10.236047      -278.5370 
  22   1.0000      -8.013176      -218.0496 
  23   1.0000      -8.011462      -218.0030 
  24   1.0000      -5.949667      -161.8987 
  25   1.0000      -5.947981      -161.8528 
  26   1.0000      -5.945985      -161.7985 
  27   1.0000      -5.944319      -161.7531 
  28   1.0000      -5.942205      -161.6956 
  29   1.0000      -5.940424      -161.6471 
  30   1.0000      -1.236658       -33.6512 
  31   1.0000      -1.125281       -30.6205 
  32   1.0000      -1.092977       -29.7414 
  33   1.0000      -0.995072       -27.0773 
  34   1.0000      -0.911027       -24.7903 
  35   1.0000      -0.910015       -24.7628 
  36   1.0000      -0.843859       -22.9626 
  37   1.0000      -0.842184       -22.9170 
  38   1.0000      -0.789377       -21.4800 
  39   1.0000      -0.787569       -21.4308 
  40   1.0000      -0.781414       -21.2634 
  41   1.0000      -0.779025       -21.1984 
  42   1.0000      -0.711578       -19.3630 
  43   1.0000      -0.695713       -18.9313 
  44   1.0000      -0.664359       -18.0781 
  45   1.0000      -0.646331       -17.5876 
  46   1.0000      -0.644937       -17.5496 
  47   1.0000      -0.628158       -17.0930 
  48   1.0000      -0.606884       -16.5142 
  49   1.0000      -0.592432       -16.1209 
  50   1.0000      -0.572708       -15.5842 
  51   1.0000      -0.564166       -15.3517 
  52   1.0000      -0.528742       -14.3878 
  53   1.0000      -0.511440       -13.9170 
  54   1.0000      -0.500354       -13.6153 
  55   1.0000      -0.497306       -13.5324 
  56   1.0000      -0.487169       -13.2566 
  57   1.0000      -0.480674       -13.0798 
  58   1.0000      -0.477507       -12.9936 
  59   1.0000      -0.467705       -12.7269 
  60   1.0000      -0.464417       -12.6374 
  61   1.0000      -0.451772       -12.2933 
  62   1.0000      -0.448898       -12.2151 
  63   1.0000      -0.445018       -12.1096 
  64   1.0000      -0.444598       -12.0981 
  65   1.0000      -0.444031       -12.0827 
  66   1.0000      -0.434540       -11.8244 
  67   1.0000      -0.419437       -11.4135 
  68   1.0000      -0.414659       -11.2834 
  69   1.0000      -0.405513       -11.0346 
  70   1.0000      -0.403452       -10.9785 
  71   1.0000      -0.388758       -10.5787 
  72   1.0000      -0.384887       -10.4733 
  73   1.0000      -0.371608       -10.1120 
  74   1.0000      -0.367896       -10.0109 
  75   1.0000      -0.366144        -9.9633 
  76   1.0000      -0.340280        -9.2595 
  77   1.0000      -0.339292        -9.2326 
  78   1.0000      -0.337549        -9.1852 
  79   1.0000      -0.325852        -8.8669 
  80   1.0000      -0.319505        -8.6942 
  81   1.0000      -0.312925        -8.5151 
  82   1.0000      -0.306879        -8.3506 
  83   1.0000      -0.284762        -7.7488 
  84   1.0000      -0.282102        -7.6764 
  85   1.0000      -0.232904        -6.3376 
  86   1.0000      -0.230743        -6.2788 
  87   0.0000      -0.061058        -1.6615 
  88   0.0000      -0.048106        -1.3090 
  89   0.0000      -0.019897        -0.5414 
  90   0.0000      -0.017893        -0.4869 
  91   0.0000      -0.001766        -0.0481 
  92   0.0000       0.027814         0.7569 
  93   0.0000       0.033198         0.9033 
  94   0.0000       0.034410         0.9363 
  95   0.0000       0.043816         1.1923 
  96   0.0000       0.056234         1.5302 
  97   0.0000       0.068060         1.8520 
  98   0.0000       0.083137         2.2623 
  99   0.0000       0.084776         2.3069 
 100   0.0000       0.091703         2.4954 
 101   0.0000       0.092130         2.5070 
 102   0.0000       0.096053         2.6137 
 103   0.0000       0.104496         2.8435 
 104   0.0000       0.114016         3.1025 
 105   0.0000       0.117808         3.2057 
 106   0.0000       0.119342         3.2475 
 107   0.0000       0.121536         3.3072 
 108   0.0000       0.124932         3.3996 
 109   0.0000       0.129666         3.5284 
 110   0.0000       0.132902         3.6164 
 111   0.0000       0.138462         3.7677 
 112   0.0000       0.145176         3.9504 
 113   0.0000       0.148863         4.0508 
 114   0.0000       0.151105         4.1118 
 115   0.0000       0.158484         4.3126 
 116   0.0000       0.165010         4.4902 
 117   0.0000       0.168866         4.5951 
 118   0.0000       0.180730         4.9179 
 119   0.0000       0.188590         5.1318 
 120   0.0000       0.198186         5.3929 
 121   0.0000       0.204764         5.5719 
 122   0.0000       0.209179         5.6921 
 123   0.0000       0.212160         5.7732 
 124   0.0000       0.215378         5.8607 
 125   0.0000       0.223398         6.0790 
 126   0.0000       0.226403         6.1607 
 127   0.0000       0.228546         6.2191 
 128   0.0000       0.229421         6.2429 
 129   0.0000       0.231793         6.3074 
 130   0.0000       0.238002         6.4764 
 131   0.0000       0.242847         6.6082 
 132   0.0000       0.246759         6.7147 
 133   0.0000       0.248237         6.7549 
 134   0.0000       0.253613         6.9012 
 135   0.0000       0.257034         6.9942 
 136   0.0000       0.259662         7.0658 
 137   0.0000       0.262398         7.1402 
 138   0.0000       0.263814         7.1787 
 139   0.0000       0.267343         7.2748 
 140   0.0000       0.275759         7.5038 
 141   0.0000       0.284660         7.7460 
 142   0.0000       0.289903         7.8887 
 143   0.0000       0.293609         7.9895 
 144   0.0000       0.298318         8.1177 
 145   0.0000       0.301817         8.2129 
 146   0.0000       0.306169         8.3313 
 147   0.0000       0.318301         8.6614 
 148   0.0000       0.320441         8.7196 
 149   0.0000       0.326640         8.8883 
 150   0.0000       0.329278         8.9601 
 151   0.0000       0.332880         9.0581 
 152   0.0000       0.339455         9.2370 
 153   0.0000       0.345457         9.4004 
 154   0.0000       0.346676         9.4335 
 155   0.0000       0.349398         9.5076 
 156   0.0000       0.352781         9.5996 
 157   0.0000       0.365356         9.9418 
 158   0.0000       0.368484        10.0270 
 159   0.0000       0.374286        10.1848 
 160   0.0000       0.377920        10.2837 
 161   0.0000       0.381550        10.3825 
 162   0.0000       0.384926        10.4744 
 163   0.0000       0.388636        10.5753 
 164   0.0000       0.394746        10.7416 
 165   0.0000       0.398620        10.8470 
 166   0.0000       0.404443        11.0055 
 167   0.0000       0.407783        11.0963 
 168   0.0000       0.411339        11.1931 
 169   0.0000       0.416878        11.3438 
 170   0.0000       0.418480        11.3874 
 171   0.0000       0.420547        11.4437 
 172   0.0000       0.426382        11.6024 
 173   0.0000       0.431153        11.7323 
 174   0.0000       0.437281        11.8990 
 175   0.0000       0.441186        12.0053 
 176   0.0000       0.445671        12.1273 
 177   0.0000       0.450740        12.2653 
 178   0.0000       0.455153        12.3854 
 179   0.0000       0.461506        12.5582 
 180   0.0000       0.464094        12.6286 
 181   0.0000       0.471142        12.8204 
 182   0.0000       0.473651        12.8887 
 183   0.0000       0.477870        13.0035 
 184   0.0000       0.480906        13.0861 
 185   0.0000       0.484542        13.1851 
 186   0.0000       0.490665        13.3517 
 187   0.0000       0.492618        13.4048 
 188   0.0000       0.500505        13.6194 
 189   0.0000       0.501191        13.6381 
 190   0.0000       0.507735        13.8162 
 191   0.0000       0.508371        13.8335 
 192   0.0000       0.513913        13.9843 
 193   0.0000       0.521997        14.2043 
 194   0.0000       0.527663        14.3584 
 195   0.0000       0.533679        14.5221 
 196   0.0000       0.537143        14.6164 
 197   0.0000       0.546130        14.8610 
 198   0.0000       0.547641        14.9021 
 199   0.0000       0.552486        15.0339 
 200   0.0000       0.556667        15.1477 
 201   0.0000       0.560268        15.2457 
 202   0.0000       0.562045        15.2940 
 203   0.0000       0.575457        15.6590 
 204   0.0000       0.581165        15.8143 
 205   0.0000       0.590058        16.0563 
 206   0.0000       0.598744        16.2926 
 207   0.0000       0.601658        16.3719 
 208   0.0000       0.607815        16.5395 
 209   0.0000       0.613601        16.6969 
 210   0.0000       0.627023        17.0622 
 211   0.0000       0.637076        17.3357 
 212   0.0000       0.639911        17.4129 
 213   0.0000       0.648471        17.6458 
 214   0.0000       0.653774        17.7901 
 215   0.0000       0.658576        17.9208 
 216   0.0000       0.667952        18.1759 
 217   0.0000       0.677784        18.4434 
 218   0.0000       0.681900        18.5554 
 219   0.0000       0.685587        18.6558 
 220   0.0000       0.694523        18.8989 
 221   0.0000       0.700276        19.0555 
 222   0.0000       0.702676        19.1208 
 223   0.0000       0.703477        19.1426 
 224   0.0000       0.709365        19.3028 
 225   0.0000       0.719134        19.5686 
 226   0.0000       0.719569        19.5805 
 227   0.0000       0.728464        19.8225 
 228   0.0000       0.733531        19.9604 
 229   0.0000       0.735117        20.0035 
 230   0.0000       0.744090        20.2477 
 231   0.0000       0.753525        20.5045 
 232   0.0000       0.760678        20.6991 
 233   0.0000       0.767787        20.8925 
 234   0.0000       0.772688        21.0259 
 235   0.0000       0.780268        21.2322 
 236   0.0000       0.781221        21.2581 
 237   0.0000       0.785714        21.3804 
 238   0.0000       0.786149        21.3922 
 239   0.0000       0.799969        21.7683 
 240   0.0000       0.803130        21.8543 
 241   0.0000       0.804495        21.8914 
 242   0.0000       0.809812        22.0361 
 243   0.0000       0.818552        22.2739 
 244   0.0000       0.821663        22.3586 
 245   0.0000       0.829076        22.5603 
 246   0.0000       0.840200        22.8630 
 247   0.0000       0.849021        23.1030 
 248   0.0000       0.860111        23.4048 
 249   0.0000       0.864627        23.5277 
 250   0.0000       0.873727        23.7753 
 251   0.0000       0.875831        23.8326 
 252   0.0000       0.877990        23.8913 
 253   0.0000       0.889142        24.1948 
 254   0.0000       0.894906        24.3516 
 255   0.0000       0.901900        24.5419 
 256   0.0000       0.912963        24.8430 
 257   0.0000       0.916916        24.9506 
 258   0.0000       0.921050        25.0630 
 259   0.0000       0.929882        25.3034 
 260   0.0000       0.934857        25.4388 
 261   0.0000       0.946324        25.7508 
 262   0.0000       0.950802        25.8726 
 263   0.0000       0.959394        26.1064 
 264   0.0000       0.967511        26.3273 
 265   0.0000       0.971923        26.4474 
 266   0.0000       0.977729        26.6054 
 267   0.0000       0.983236        26.7552 
 268   0.0000       0.986833        26.8531 
 269   0.0000       1.003226        27.2992 
 270   0.0000       1.008133        27.4327 
 271   0.0000       1.014599        27.6086 
 272   0.0000       1.021253        27.7897 
 273   0.0000       1.030217        28.0336 
 274   0.0000       1.042757        28.3749 
 275   0.0000       1.047881        28.5143 
 276   0.0000       1.053621        28.6705 
 277   0.0000       1.061431        28.8830 
 278   0.0000       1.079335        29.3702 
 279   0.0000       1.080055        29.3898 
 280   0.0000       1.089420        29.6446 
 281   0.0000       1.093399        29.7529 
 282   0.0000       1.104302        30.0496 
 283   0.0000       1.110753        30.2251 
 284   0.0000       1.132611        30.8199 
 285   0.0000       1.135948        30.9107 
 286   0.0000       1.150540        31.3078 
 287   0.0000       1.163798        31.6686 
 288   0.0000       1.173949        31.9448 
 289   0.0000       1.180584        32.1253 
 290   0.0000       1.196487        32.5581 
 291   0.0000       1.211676        32.9714 
 292   0.0000       1.218161        33.1478 
 293   0.0000       1.226757        33.3818 
 294   0.0000       1.231299        33.5053 
 295   0.0000       1.237930        33.6858 
 296   0.0000       1.241435        33.7812 
 297   0.0000       1.245209        33.8838 
 298   0.0000       1.256393        34.1882 
 299   0.0000       1.265581        34.4382 
 300   0.0000       1.279278        34.8109 
 301   0.0000       1.284080        34.9416 
 302   0.0000       1.296504        35.2797 
 303   0.0000       1.299453        35.3599 
 304   0.0000       1.303618        35.4733 
 305   0.0000       1.306825        35.5605 
 306   0.0000       1.320906        35.9437 
 307   0.0000       1.335020        36.3278 
 308   0.0000       1.337834        36.4043 
 309   0.0000       1.348952        36.7068 
 310   0.0000       1.366040        37.1718 
 311   0.0000       1.376717        37.4624 
 312   0.0000       1.392510        37.8921 
 313   0.0000       1.401381        38.1335 
 314   0.0000       1.417493        38.5719 
 315   0.0000       1.426882        38.8274 
 316   0.0000       1.446585        39.3636 
 317   0.0000       1.450336        39.4657 
 318   0.0000       1.455883        39.6166 
 319   0.0000       1.461631        39.7730 
 320   0.0000       1.469708        39.9928 
 321   0.0000       1.479246        40.2523 
 322   0.0000       1.489238        40.5242 
 323   0.0000       1.495009        40.6813 
 324   0.0000       1.500392        40.8277 
 325   0.0000       1.508000        41.0348 
 326   0.0000       1.514300        41.2062 
 327   0.0000       1.518933        41.3323 
 328   0.0000       1.519950        41.3599 
 329   0.0000       1.522524        41.4300 
 330   0.0000       1.528616        41.5957 
 331   0.0000       1.532612        41.7045 
 332   0.0000       1.535395        41.7802 
 333   0.0000       1.537741        41.8441 
 334   0.0000       1.542980        41.9866 
 335   0.0000       1.546605        42.0853 
 336   0.0000       1.556847        42.3640 
 337   0.0000       1.562366        42.5142 
 338   0.0000       1.564077        42.5607 
 339   0.0000       1.566264        42.6202 
 340   0.0000       1.571627        42.7662 
 341   0.0000       1.578261        42.9467 
 342   0.0000       1.584850        43.1260 
 343   0.0000       1.593253        43.3546 
 344   0.0000       1.596207        43.4350 
 345   0.0000       1.600793        43.5598 
 346   0.0000       1.609110        43.7861 
 347   0.0000       1.610817        43.8326 
 348   0.0000       1.617901        44.0253 
 349   0.0000       1.624727        44.2111 
 350   0.0000       1.631344        44.3911 
 351   0.0000       1.635173        44.4953 
 352   0.0000       1.636228        44.5240 
 353   0.0000       1.650726        44.9185 
 354   0.0000       1.661206        45.2037 
 355   0.0000       1.667664        45.3794 
 356   0.0000       1.675046        45.5803 
 357   0.0000       1.680665        45.7332 
 358   0.0000       1.687880        45.9296 
 359   0.0000       1.693670        46.0871 
 360   0.0000       1.696339        46.1597 
 361   0.0000       1.700126        46.2628 
 362   0.0000       1.705125        46.3988 
 363   0.0000       1.710668        46.5496 
 364   0.0000       1.724684        46.9310 
 365   0.0000       1.729234        47.0548 
 366   0.0000       1.733909        47.1821 
 367   0.0000       1.743909        47.4542 
 368   0.0000       1.755217        47.7619 
 369   0.0000       1.758464        47.8502 
 370   0.0000       1.785509        48.5862 
 371   0.0000       1.791860        48.7590 
 372   0.0000       1.803014        49.0625 
 373   0.0000       1.817648        49.4607 
 374   0.0000       1.819748        49.5178 
 375   0.0000       1.824323        49.6424 
 376   0.0000       1.830653        49.8146 
 377   0.0000       1.833614        49.8952 
 378   0.0000       1.837839        50.0101 
 379   0.0000       1.847251        50.2663 
 380   0.0000       1.852355        50.4051 
 381   0.0000       1.853970        50.4491 
 382   0.0000       1.861360        50.6502 
 383   0.0000       1.863752        50.7153 
 384   0.0000       1.871816        50.9347 
 385   0.0000       1.873421        50.9784 
 386   0.0000       1.881003        51.1847 
 387   0.0000       1.884679        51.2847 
 388   0.0000       1.888595        51.3913 
 389   0.0000       1.894523        51.5526 
 390   0.0000       1.907982        51.9188 
 391   0.0000       1.910552        51.9888 
 392   0.0000       1.926982        52.4358 
 393   0.0000       1.938724        52.7554 
 394   0.0000       1.953094        53.1464 
 395   0.0000       1.970355        53.6161 
 396   0.0000       1.976338        53.7789 
 397   0.0000       1.982114        53.9361 
 398   0.0000       1.985390        54.0252 
 399   0.0000       2.007094        54.6158 
 400   0.0000       2.019912        54.9646 
 401   0.0000       2.026019        55.1308 
 402   0.0000       2.035988        55.4020 
 403   0.0000       2.039315        55.4926 
 404   0.0000       2.055943        55.9451 
 405   0.0000       2.066117        56.2219 
 406   0.0000       2.080416        56.6110 
 407   0.0000       2.087182        56.7951 
 408   0.0000       2.092638        56.9436 
 409   0.0000       2.099503        57.1304 
 410   0.0000       2.102685        57.2170 
 411   0.0000       2.104681        57.2713 
 412   0.0000       2.108652        57.3793 
 413   0.0000       2.120663        57.7062 
[...]
      px      :     0.000000
      py      :     0.000000
      dz2     :     0.000000  d :     0.000000
      dxz     :     0.000000
      dyz     :     0.000000
      dx2y2   :     0.000000
      dxy     :     0.000000
      f0      :     0.000000  f :     0.000000
      f+1     :     0.000000
      f-1     :     0.000000
      f+2     :     0.000000
      f-2     :     0.000000
      f+3     :     0.000000
      f-3     :     0.000000
  7 C s       :     0.000000  s :     0.000000
      pz      :     0.000000  p :     0.000000
      px      :     0.000000
      py      :     0.000000
      dz2     :     0.000000  d :     0.000000
      dxz     :     0.000000
      dyz     :     0.000000
      dx2y2   :     0.000000
      dxy     :     0.000000
      f0      :     0.000000  f :     0.000000
      f+1     :     0.000000
      f-1     :     0.000000
      f+2     :     0.000000
      f-2     :     0.000000
      f+3     :     0.000000
      f-3     :     0.000000
  8 C s       :     0.000000  s :     0.000000
      pz      :     0.000000  p :     0.000000
      px      :     0.000000
      py      :     0.000000
      dz2     :     0.000000  d :     0.000000
      dxz     :     0.000000
      dyz     :     0.000000
      dx2y2   :     0.000000
      dxy     :     0.000000
      f0      :     0.000000  f :     0.000000
      f+1     :     0.000000
      f-1     :     0.000000
      f+2     :     0.000000
      f-2     :     0.000000
      f+3     :     0.000000
      f-3     :     0.000000
  9 O s       :     0.000000  s :     0.000000
      pz      :     0.000000  p :     0.000000
      px      :     0.000000
      py      :     0.000000
      dz2     :     0.000000  d :     0.000000
      dxz     :     0.000000
      dyz     :     0.000000
      dx2y2   :     0.000000
      dxy     :     0.000000
      f0      :     0.000000  f :     0.000000
      f+1     :     0.000000
      f-1     :     0.000000
      f+2     :     0.000000
      f-2     :     0.000000
      f+3     :     0.000000
      f-3     :     0.000000
 10 O s       :     0.000000  s :     0.000000
      pz      :     0.000000  p :     0.000000
      px      :     0.000000
      py      :     0.000000
      dz2     :     0.000000  d :     0.000000
      dxz     :     0.000000
      dyz     :     0.000000
      dx2y2   :     0.000000
      dxy     :     0.000000
      f0      :     0.000000  f :     0.000000
      f+1     :     0.000000
      f-1     :     0.000000
      f+2     :     0.000000
      f-2     :     0.000000
      f+3     :     0.000000
      f-3     :     0.000000
 11 O s       :     0.000000  s :     0.000000
      pz      :     0.000000  p :     0.000000
      px      :     0.000000
      py      :     0.000000
      dz2     :     0.000000  d :     0.000000
      dxz     :     0.000000
      dyz     :     0.000000
      dx2y2   :     0.000000
      dxy     :     0.000000
      f0      :     0.000000  f :     0.000000
      f+1     :     0.000000
      f-1     :     0.000000
      f+2     :     0.000000
      f-2     :     0.000000
      f+3     :     0.000000
      f-3     :     0.000000
 12 C s       :     0.000000  s :     0.000000
      pz      :     0.000000  p :     0.000000
      px      :     0.000000
      py      :     0.000000
      dz2     :     0.000000  d :     0.000000
      dxz     :     0.000000
      dyz     :     0.000000
      dx2y2   :     0.000000
      dxy     :     0.000000
      f0      :     0.000000  f :     0.000000
      f+1     :     0.000000
      f-1     :     0.000000
      f+2     :     0.000000
      f-2     :     0.000000
      f+3     :     0.000000
      f-3     :     0.000000
 13 C s       :     0.000000  s :     0.000000
      pz      :     0.000000  p :     0.000000
      px      :     0.000000
      py      :     0.000000
      dz2     :     0.000000  d :     0.000000
      dxz     :     0.000000
      dyz     :     0.000000
      dx2y2   :     0.000000
      dxy     :     0.000000
      f0      :     0.000000  f :     0.000000
      f+1     :     0.000000
      f-1     :     0.000000
      f+2     :     0.000000
      f-2     :     0.000000
      f+3     :     0.000000
      f-3     :     0.000000
 14 O s       :     0.000000  s :     0.000000
      pz      :     0.000000  p :     0.000000
      px      :     0.000000
      py      :     0.000000
      dz2     :     0.000000  d :     0.000000
      dxz     :     0.000000
      dyz     :     0.000000
      dx2y2   :     0.000000
      dxy     :     0.000000
      f0      :     0.000000  f :     0.000000
      f+1     :     0.000000
      f-1     :     0.000000
      f+2     :     0.000000
      f-2     :     0.000000
      f+3     :     0.000000
      f-3     :     0.000000
 15 C s       :     0.000000  s :     0.000000
      pz      :     0.000000  p :     0.000000
      px      :     0.000000
      py      :     0.000000
      dz2     :     0.000000  d :     0.000000
      dxz     :     0.000000
      dyz     :     0.000000
      dx2y2   :     0.000000
      dxy     :     0.000000
      f0      :     0.000000  f :     0.000000
      f+1     :     0.000000
      f-1     :     0.000000
      f+2     :     0.000000
      f-2     :     0.000000
      f+3     :     0.000000
      f-3     :     0.000000
 16 C s       :     0.000000  s :     0.000000
      pz      :     0.000000  p :     0.000000
      px      :     0.000000
      py      :     0.000000
      dz2     :     0.000000  d :     0.000000
      dxz     :     0.000000
      dyz     :     0.000000
      dx2y2   :     0.000000
      dxy     :     0.000000
      f0      :     0.000000  f :     0.000000
      f+1     :     0.000000
      f-1     :     0.000000
      f+2     :     0.000000
      f-2     :     0.000000
      f+3     :     0.000000
      f-3     :     0.000000
 17 C s       :     0.000000  s :     0.000000
      pz      :     0.000000  p :     0.000000
      px      :     0.000000
      py      :     0.000000
      dz2     :     0.000000  d :     0.000000
      dxz     :     0.000000
      dyz     :     0.000000
      dx2y2   :     0.000000
      dxy     :     0.000000
      f0      :     0.000000  f :     0.000000
      f+1     :     0.000000
      f-1     :     0.000000
      f+2     :     0.000000
      f-2     :     0.000000
      f+3     :     0.000000
      f-3     :     0.000000
 18 C s       :     0.000000  s :     0.000000
      pz      :     0.000000  p :     0.000000
      px      :     0.000000
      py      :     0.000000
      dz2     :     0.000000  d :     0.000000
      dxz     :     0.000000
      dyz     :     0.000000
      dx2y2   :     0.000000
      dxy     :     0.000000
      f0      :     0.000000  f :     0.000000
      f+1     :     0.000000
      f-1     :     0.000000
      f+2     :     0.000000
      f-2     :     0.000000
      f+3     :     0.000000
      f-3     :     0.000000
 19 C s       :     0.000000  s :     0.000000
      pz      :     0.000000  p :     0.000000
      px      :     0.000000
      py      :     0.000000
      dz2     :     0.000000  d :     0.000000
      dxz     :     0.000000
      dyz     :     0.000000
      dx2y2   :     0.000000
      dxy     :     0.000000
      f0      :     0.000000  f :     0.000000
      f+1     :     0.000000
      f-1     :     0.000000
      f+2     :     0.000000
      f-2     :     0.000000
      f+3     :     0.000000
      f-3     :     0.000000
 20 S s       :     0.000000  s :     0.000000
      pz      :     0.000000  p :     0.000000
      px      :     0.000000
      py      :     0.000000
      dz2     :     0.000000  d :     0.000000
      dxz     :     0.000000
      dyz     :     0.000000
      dx2y2   :     0.000000
      dxy     :     0.000000
      f0      :     0.000000  f :     0.000000
      f+1     :     0.000000
      f-1     :     0.000000
      f+2     :     0.000000
      f-2     :     0.000000
      f+3     :     0.000000
      f-3     :     0.000000
 21 C s       :     0.000000  s :     0.000000
      pz      :     0.000000  p :     0.000000
      px      :     0.000000
      py      :     0.000000
      dz2     :     0.000000  d :     0.000000
      dxz     :     0.000000
      dyz     :     0.000000
      dx2y2   :     0.000000
      dxy     :     0.000000
      f0      :     0.000000  f :     0.000000
      f+1     :     0.000000
      f-1     :     0.000000
      f+2     :     0.000000
      f-2     :     0.000000
      f+3     :     0.000000
      f-3     :     0.000000
 22 H s       :     0.000000  s :     0.000000
      pz      :     0.000000  p :     0.000000
      px      :     0.000000
      py      :     0.000000
 23 H s       :     0.000000  s :     0.000000
      pz      :     0.000000  p :     0.000000
      px      :     0.000000
      py      :     0.000000
 24 H s       :     0.000000  s :     0.000000
      pz      :     0.000000  p :     0.000000
      px      :     0.000000
      py      :     0.000000
 25 H s       :     0.000000  s :     0.000000
      pz      :     0.000000  p :     0.000000
      px      :     0.000000
      py      :     0.000000
 26 H s       :     0.000000  s :     0.000000
      pz      :     0.000000  p :     0.000000
      px      :     0.000000
      py      :     0.000000
 27 H s       :     0.000000  s :     0.000000
      pz      :     0.000000  p :     0.000000
      px      :     0.000000
      py      :     0.000000
 28 H s       :     0.000000  s :     0.000000
      pz      :     0.000000  p :     0.000000
      px      :     0.000000
      py      :     0.000000
 29 H s       :     0.000000  s :     0.000000
      pz      :     0.000000  p :     0.000000
      px      :     0.000000
      py      :     0.000000
 30 H s       :     0.000000  s :     0.000000
      pz      :     0.000000  p :     0.000000
      px      :     0.000000
      py      :     0.000000
 31 H s       :     0.000000  s :     0.000000
      pz      :     0.000000  p :     0.000000
      px      :     0.000000
      py      :     0.000000
 32 H s       :     0.000000  s :     0.000000
      pz      :     0.000000  p :     0.000000
      px      :     0.000000
      py      :     0.000000
 33 H s       :     0.000000  s :     0.000000
      pz      :     0.000000  p :     0.000000
      px      :     0.000000
      py      :     0.000000
 34 H s       :     0.000000  s :     0.000000
      pz      :     0.000000  p :     0.000000
      px      :     0.000000
      py      :     0.000000
 35 H s       :     0.000000  s :     0.000000
      pz      :     0.000000  p :     0.000000
      px      :     0.000000
      py      :     0.000000


                      *****************************
                      * MAYER POPULATION ANALYSIS *
                      *****************************

  NA   - Mulliken gross atomic population
  ZA   - Total nuclear charge
  QA   - Mulliken gross atomic charge
  VA   - Mayer's total valence
  BVA  - Mayer's bonded valence
  FA   - Mayer's free valence

  ATOM       NA         ZA         QA         VA         BVA        FA
  0 C      6.4195     6.0000    -0.4195     3.9225     3.9225    -0.0000
  1 S     16.0596    16.0000    -0.0596     2.4448     2.4448    -0.0000
  2 C      5.8418     6.0000     0.1582     3.8379     3.8379     0.0000
  3 C      6.2300     6.0000    -0.2300     3.8732     3.8732     0.0000
  4 C      6.2352     6.0000    -0.2352     3.9984     3.9984     0.0000
  5 C      5.8530     6.0000     0.1470     3.5307     3.5307     0.0000
  6 C      6.2599     6.0000    -0.2599     4.0162     4.0162    -0.0000
  7 C      6.1909     6.0000    -0.1909     3.8664     3.8664    -0.0000
  8 C      5.7268     6.0000     0.2732     4.3407     4.3407     0.0000
  9 O      8.0817     8.0000    -0.0817     2.0160     2.0160     0.0000
 10 O      8.3023     8.0000    -0.3023     2.2222     2.2222     0.0000
 11 O      8.1141     8.0000    -0.1141     2.0418     2.0418     0.0000
 12 C      5.7161     6.0000     0.2839     4.3085     4.3085     0.0000
 13 C      5.8810     6.0000     0.1190     3.5291     3.5291    -0.0000
 14 O      8.3141     8.0000    -0.3141     2.2012     2.2012    -0.0000
 15 C      6.2416     6.0000    -0.2416     3.9908     3.9908     0.0000
 16 C      6.1852     6.0000    -0.1852     3.8661     3.8661    -0.0000
 17 C      5.8321     6.0000     0.1679     3.8331     3.8331    -0.0000
 18 C      6.2394     6.0000    -0.2394     3.8848     3.8848     0.0000
 19 C      6.2282     6.0000    -0.2282     3.9756     3.9756     0.0000
 20 S     16.0518    16.0000    -0.0518     2.4621     2.4621    -0.0000
 21 C      6.4195     6.0000    -0.4195     3.9227     3.9227    -0.0000
 22 H      0.8096     1.0000     0.1904     0.9553     0.9553     0.0000
 23 H      0.8243     1.0000     0.1757     0.9576     0.9576    -0.0000
 24 H      0.8245     1.0000     0.1755     0.9559     0.9559    -0.0000
 25 H      0.8276     1.0000     0.1724     0.9649     0.9649     0.0000
 26 H      0.8326     1.0000     0.1674     0.9750     0.9750     0.0000
 27 H      0.8332     1.0000     0.1668     0.9667     0.9667     0.0000
 28 H      0.8389     1.0000     0.1611     0.9678     0.9678     0.0000
 29 H      0.8368     1.0000     0.1632     0.9775     0.9775    -0.0000
 30 H      0.8390     1.0000     0.1610     0.9690     0.9690    -0.0000
 31 H      0.8277     1.0000     0.1723     0.9655     0.9655    -0.0000
 32 H      0.8262     1.0000     0.1738     0.9683     0.9683    -0.0000
 33 H      0.8087     1.0000     0.1913     0.9550     0.9550    -0.0000
 34 H      0.8237     1.0000     0.1763     0.9568     0.9568    -0.0000
 35 H      0.8237     1.0000     0.1763     0.9566     0.9566    -0.0000

  Mayer bond orders larger than 0.100000
B(  0-C ,  1-S ) :   1.0641 B(  0-C , 22-H ) :   0.9365 B(  0-C , 23-H ) :   0.9486 
B(  0-C , 24-H ) :   0.9469 B(  1-S ,  2-C ) :   1.1840 B(  2-C ,  3-C ) :   1.2797 
B(  2-C ,  7-C ) :   1.2765 B(  3-C ,  4-C ) :   1.4529 B(  3-C , 25-H ) :   0.9607 
B(  4-C ,  5-C ) :   1.3119 B(  4-C , 26-H ) :   0.9410 B(  5-C ,  6-C ) :   1.3053 
B(  5-C ,  8-C ) :   0.9603 B(  6-C ,  7-C ) :   1.4762 B(  6-C , 27-H ) :   0.9785 
B(  7-C , 28-H ) :   0.9750 B(  8-C ,  9-O ) :   1.1173 B(  8-C , 10-O ) :   2.1351 
B(  9-O , 11-O ) :   0.8166 B( 11-O , 12-C ) :   1.1006 B( 12-C , 13-C ) :   0.9889 
B( 12-C , 14-O ) :   2.0761 B( 13-C , 15-C ) :   1.2873 B( 13-C , 19-C ) :   1.3195 
B( 15-C , 16-C ) :   1.4907 B( 15-C , 29-H ) :   0.9750 B( 16-C , 17-C ) :   1.2596 
B( 16-C , 30-H ) :   0.9767 B( 17-C , 18-C ) :   1.2831 B( 17-C , 20-S ) :   1.1960 
B( 18-C , 19-C ) :   1.4521 B( 18-C , 31-H ) :   0.9608 B( 19-C , 32-H ) :   0.9588 
B( 20-S , 21-C ) :   1.0638 B( 21-C , 33-H ) :   0.9361 B( 21-C , 34-H ) :   0.9477 
B( 21-C , 35-H ) :   0.9476 

-------
TIMINGS
-------

Total SCF time: 0 days 0 hours 2 min 24 sec 

Total time                  ....     144.371 sec
Sum of individual times     ....     141.314 sec  ( 97.9%)

Fock matrix formation       ....     133.562 sec  ( 92.5%)
  Split-RI-J                ....       8.008 sec  (  6.0% of F)
  Chain of spheres X        ....     100.908 sec  ( 75.6% of F)
  XC integration            ....      13.483 sec  ( 10.1% of F)
    Basis function eval.    ....       2.482 sec  ( 18.4% of XC)
    Density eval.           ....       6.371 sec  ( 47.3% of XC)
    XC-Functional eval.     ....       0.247 sec  (  1.8% of XC)
    XC-Potential eval.      ....       3.250 sec  ( 24.1% of XC)
Diagonalization             ....       2.818 sec  (  2.0%)
Density matrix formation    ....       0.126 sec  (  0.1%)
Population analysis         ....       0.319 sec  (  0.2%)
Initial guess               ....       0.465 sec  (  0.3%)
Orbital Transformation      ....       0.000 sec  (  0.0%)
Orbital Orthonormalization  ....       0.409 sec  (  0.3%)
DIIS solution               ....       1.102 sec  (  0.8%)
Grid generation             ....       2.923 sec  (  2.0%)

Maximum memory used throughout the entire SCF-calculation: 185.6 MB


-------------------------------------------------------------------------------
                          DFT DISPERSION CORRECTION                            
                                                                               
                              DFTD3 V3.1  Rev 1                                
                          USING Becke-Johnson damping                          
-------------------------------------------------------------------------------
The PBE0 functional is recognized
Active option DFTDOPT                   ...         4   

molecular C6(AA) [au] = 19260.615230 


            DFT-D V3
 parameters
 s6 scaling factor         :     1.0000 
 a1 scaling factor         :     0.4145 
 s8 scaling factor         :     1.2177 
 a2 scaling factor         :     4.8593 
 ad hoc parameters k1-k3   :    16.0000     1.3333    -4.0000 

 Edisp/kcal,au: -27.802541305547  -0.044306165068 
 E6   /kcal   : -17.181660986 
 E8   /kcal   : -10.620880319 
 % E8         :  38.201113353 

-------------------------   ----------------
Dispersion correction           -0.044306165
-------------------------   ----------------


-------------------------   --------------------
FINAL SINGLE POINT ENERGY     -1714.465458072551
-------------------------   --------------------

                                *** OPTIMIZATION RUN DONE ***

                            ***************************************
                            *     ORCA property calculations      *
                            ***************************************

                                    ---------------------
                                    Active property flags
                                    ---------------------
   (+) Dipole Moment


------------------------------------------------------------------------------
                       ORCA ELECTRIC PROPERTIES CALCULATION
------------------------------------------------------------------------------

Dipole Moment Calculation                       ... on
Quadrupole Moment Calculation                   ... off
Polarizability Calculation                      ... off
GBWName                                         ... /burg/berkelbach/users/eav2136/projects/peroxide_dissociation/04_solvated_radical/dmso_peroxide/dmso_peroxide_opt.gbw
Electron density                                ... /burg/berkelbach/users/eav2136/projects/peroxide_dissociation/04_solvated_radical/dmso_peroxide/dmso_peroxide_opt.scfp
The origin for moment calculation is the CENTER OF MASS  = (-0.248603,  3.453532  5.645778)

-------------
DIPOLE MOMENT
-------------
                                X             Y             Z
Electronic contribution:     -0.84053      -8.72021     -13.45594
Nuclear contribution   :      1.41087      10.56316      17.33728
                        -----------------------------------------
Total Dipole Moment    :      0.57034       1.84295       3.88134
                        -----------------------------------------
Magnitude (a.u.)       :      4.33434
Magnitude (Debye)      :     11.01703



--------------------
Rotational spectrum 
--------------------
 
Rotational constants in cm-1:     0.008909     0.005388     0.003674 
Rotational constants in MHz :   267.071308   161.532813   110.156578 

 Dipole components along the rotational axes: 
x,y,z [a.u.] :     2.430715     3.574135    -0.322052 
x,y,z [Debye]:     6.178388     9.084730    -0.818591 

 

Timings for individual modules:

Sum of individual times         ...     3289.668 sec (=  54.828 min)
GTO integral calculation        ...       52.913 sec (=   0.882 min)   1.6 %
SCF iterations                  ...     2533.614 sec (=  42.227 min)  77.0 %
SCF Gradient evaluation         ...      701.390 sec (=  11.690 min)  21.3 %
Geometry relaxation             ...        1.751 sec (=   0.029 min)   0.1 %
                             ****ORCA TERMINATED NORMALLY****
TOTAL RUN TIME: 0 days 0 hours 55 minutes 5 seconds 843 msec
