Job execution start: Fri Apr 22 11:48:35 EDT 2022
Shared library path: /cm/shared/apps/cuda11.0/toolkit/11.0.3/compat:/burg/berkelbach/users/eav2136/builds/orca/5.0.3/orca:/cm/shared/apps/ucx/1.8.1/lib64:/cm/local/apps/cuda/libs/current/lib64:/cm/shared/apps/cuda11.0/toolkit/11.0.3/targets/x86_64-linux/lib:/cm/shared/apps/cuda11.0/visual-tools/11.0.3/libnvvp:/burg/opt/openmpi-4.1.1_ucx_cuda_11.0.3_support/lib:/cm/shared/apps/slurm/current/lib64/slurm:/cm/shared/apps/slurm/current/lib64
Slurm Job ID is: 1845689
Slurm Job name is: wb97x-v-peroxide-nmf_opt
g120

                                 *****************
                                 * O   R   C   A *
                                 *****************

                                            #,                                       
                                            ###                                      
                                            ####                                     
                                            #####                                    
                                            ######                                   
                                           ########,                                 
                                     ,,################,,,,,                         
                               ,,#################################,,                 
                          ,,##########################################,,             
                       ,#########################################, ''#####,          
                    ,#############################################,,   '####,        
                  ,##################################################,,,,####,       
                ,###########''''           ''''###############################       
              ,#####''   ,,,,##########,,,,          '''####'''          '####       
            ,##' ,,,,###########################,,,                        '##       
           ' ,,###''''                  '''############,,,                           
         ,,##''                                '''############,,,,        ,,,,,,###''
      ,#''                                            '''#######################'''  
     '                                                          ''''####''''         
             ,#######,   #######,   ,#######,      ##                                
            ,#'     '#,  ##    ##  ,#'     '#,    #''#        ######   ,####,        
            ##       ##  ##   ,#'  ##            #'  '#       #        #'  '#        
            ##       ##  #######   ##           ,######,      #####,   #    #        
            '#,     ,#'  ##    ##  '#,     ,#' ,#      #,         ##   #,  ,#        
             '#######'   ##     ##  '#######'  #'      '#     #####' # '####'        



                  #######################################################
                  #                        -***-                        #
                  #          Department of theory and spectroscopy      #
                  #    Directorship and core code : Frank Neese         #
                  #        Max Planck Institute fuer Kohlenforschung    #
                  #                Kaiser Wilhelm Platz 1               #
                  #                 D-45470 Muelheim/Ruhr               #
                  #                      Germany                        #
                  #                                                     #
                  #                  All rights reserved                #
                  #                        -***-                        #
                  #######################################################


                         Program Version 5.0.3 -  RELEASE  -


 With contributions from (in alphabetic order):
   Daniel Aravena         : Magnetic Suceptibility
   Michael Atanasov       : Ab Initio Ligand Field Theory (pilot matlab implementation)
   Alexander A. Auer      : GIAO ZORA, VPT2 properties, NMR spectrum
   Ute Becker             : Parallelization
   Giovanni Bistoni       : ED, misc. LED, open-shell LED, HFLD
   Martin Brehm           : Molecular dynamics
   Dmytro Bykov           : SCF Hessian
   Vijay G. Chilkuri      : MRCI spin determinant printing, contributions to CSF-ICE
   Dipayan Datta          : RHF DLPNO-CCSD density
   Achintya Kumar Dutta   : EOM-CC, STEOM-CC
   Dmitry Ganyushin       : Spin-Orbit,Spin-Spin,Magnetic field MRCI
   Miquel Garcia          : C-PCM and meta-GGA Hessian, CC/C-PCM, Gaussian charge scheme
   Yang Guo               : DLPNO-NEVPT2, F12-NEVPT2, CIM, IAO-localization
   Andreas Hansen         : Spin unrestricted coupled pair/coupled cluster methods
   Benjamin Helmich-Paris : MC-RPA, TRAH-SCF, COSX integrals
   Lee Huntington         : MR-EOM, pCC
   Robert Izsak           : Overlap fitted RIJCOSX, COSX-SCS-MP3, EOM
   Marcus Kettner         : VPT2
   Christian Kollmar      : KDIIS, OOCD, Brueckner-CCSD(T), CCSD density, CASPT2, CASPT2-K
   Simone Kossmann        : Meta GGA functionals, TD-DFT gradient, OOMP2, MP2 Hessian
   Martin Krupicka        : Initial AUTO-CI
   Lucas Lang             : DCDCAS
   Marvin Lechner         : AUTO-CI (C++ implementation), FIC-MRCC
   Dagmar Lenk            : GEPOL surface, SMD
   Dimitrios Liakos       : Extrapolation schemes; Compound Job, initial MDCI parallelization
   Dimitrios Manganas     : Further ROCIS development; embedding schemes
   Dimitrios Pantazis     : SARC Basis sets
   Anastasios Papadopoulos: AUTO-CI, single reference methods and gradients
   Taras Petrenko         : DFT Hessian,TD-DFT gradient, ASA, ECA, R-Raman, ABS, FL, XAS/XES, NRVS
   Peter Pinski           : DLPNO-MP2, DLPNO-MP2 Gradient
   Christoph Reimann      : Effective Core Potentials
   Marius Retegan         : Local ZFS, SOC
   Christoph Riplinger    : Optimizer, TS searches, QM/MM, DLPNO-CCSD(T), (RO)-DLPNO pert. Triples
   Tobias Risthaus        : Range-separated hybrids, TD-DFT gradient, RPA, STAB
   Michael Roemelt        : Original ROCIS implementation
   Masaaki Saitow         : Open-shell DLPNO-CCSD energy and density
   Barbara Sandhoefer     : DKH picture change effects
   Avijit Sen             : IP-ROCIS
   Kantharuban Sivalingam : CASSCF convergence, NEVPT2, FIC-MRCI
   Bernardo de Souza      : ESD, SOC TD-DFT
   Georgi Stoychev        : AutoAux, RI-MP2 NMR, DLPNO-MP2 response
   Willem Van den Heuvel  : Paramagnetic NMR
   Boris Wezisla          : Elementary symmetry handling
   Frank Wennmohs         : Technical directorship


 We gratefully acknowledge several colleagues who have allowed us to
 interface, adapt or use parts of their codes:
   Stefan Grimme, W. Hujo, H. Kruse, P. Pracht,  : VdW corrections, initial TS optimization,
                  C. Bannwarth, S. Ehlert          DFT functionals, gCP, sTDA/sTD-DF
   Ed Valeev, F. Pavosevic, A. Kumar             : LibInt (2-el integral package), F12 methods
   Garnet Chan, S. Sharma, J. Yang, R. Olivares  : DMRG
   Ulf Ekstrom                                   : XCFun DFT Library
   Mihaly Kallay                                 : mrcc  (arbitrary order and MRCC methods)
   Jiri Pittner, Ondrej Demel                    : Mk-CCSD
   Frank Weinhold                                : gennbo (NPA and NBO analysis)
   Christopher J. Cramer and Donald G. Truhlar   : smd solvation model
   Lars Goerigk                                  : TD-DFT with DH, B97 family of functionals
   V. Asgeirsson, H. Jonsson                     : NEB implementation
   FAccTs GmbH                                   : IRC, NEB, NEB-TS, DLPNO-Multilevel, CI-OPT
                                                   MM, QMMM, 2- and 3-layer-ONIOM, Crystal-QMMM,
                                                   LR-CPCM, SF, NACMEs, symmetry and pop. for TD-DFT,
                                                   nearIR, NL-DFT gradient (VV10), updates on ESD,
                                                   ML-optimized integration grids
   S Lehtola, MJT Oliveira, MAL Marques          : LibXC Library
   Liviu Ungur et al                             : ANISO software


 Your calculation uses the libint2 library for the computation of 2-el integrals
 For citations please refer to: http://libint.valeyev.net

 Your ORCA version has been built with support for libXC version: 5.1.0
 For citations please refer to: https://tddft.org/programs/libxc/

 This ORCA versions uses:
   CBLAS   interface :  Fast vector & matrix operations
   LAPACKE interface :  Fast linear algebra routines
   SCALAPACK package :  Parallel linear algebra routines
   Shared memory     :  Shared parallel matrices
   BLAS/LAPACK       :  OpenBLAS 0.3.15  USE64BITINT DYNAMIC_ARCH NO_AFFINITY SkylakeX SINGLE_THREADED
        Core in use  :  SkylakeX
   Copyright (c) 2011-2014, The OpenBLAS Project


Your calculation utilizes the DFT-NL dispersion correction.
Cite in your paper:
Vydrov, O. A.; Van Voorhis, T. J. Chem. Phys. 2010, 133, 244103
Hujo, W.; Grimme, S. J. Chem. Theory Comput. 2011, 7, 3866 
   

Your calculation utilizes the SMD solvation module
Please cite in your paper:
A.V. Marenich, C.J. Cramer, D.G. Truhlar J. Phys. Chem. B, 113, (2009), 6378 

================================================================================

----- Orbital basis set information -----
Your calculation utilizes the basis: def2-TZVP
   F. Weigend and R. Ahlrichs, Phys. Chem. Chem. Phys. 7, 3297 (2005).

----- AuxJ basis set information -----
Your calculation utilizes the auxiliary basis: def2/J
   F. Weigend, Phys. Chem. Chem. Phys. 8, 1057 (2006).

================================================================================
                                        WARNINGS
                       Please study these warnings very carefully!
================================================================================


WARNING: Geometry Optimization
  ===> : Switching off AutoStart
         For restart on a previous wavefunction, please use MOREAD

WARNING: Analytic gradients for DFT-NL dispersion can only be done using the self-consistent method,
  ===>   Switching to SCNL

WARNING: Self-consistent DFT-NL dispersion not compatible with AutoTRAH.
  ===>   Switching AutoTRAH off


INFO   : the flag for use of the SHARK integral package has been found!

================================================================================
                                       INPUT FILE
================================================================================
NAME = /burg/berkelbach/users/eav2136/projects/peroxide_dissociation/05_range_separated_functional/wb97x-v-peroxide-nmf/wb97x-v-peroxide-nmf_opt.inp
|  1> ! UKS wB97X-V def2-TZVP TIGHTSCF Opt CPCM PAL8
|  2> %maxcore 5000
|  3> %cpcm
|  4> smd true
|  5> SMDsolvent "N-METHYLFORMAMIDE"
|  6> end
|  7> * xyz 0 1
|  8>  C -0.07425707479814 6.45007760366319 3.54636897867849
|  9>  S 1.48979584793712 6.08048225687873 2.75598260255209
| 10>  C 1.14936654141856 4.63662227087222 1.83369205968326
| 11>  C -0.09136557109480 4.00305286554088 1.79338352444578
| 12>  C -0.25826928718407 2.84269542505768 1.05936282240646
| 13>  C 0.80050967676942 2.30271389692801 0.33923873907232
| 14>  C 2.02875697338567 2.96040825022008 0.34201900047512
| 15>  C 2.20764771123846 4.10330343094754 1.09121055149825
| 16>  C 0.66254428710301 1.09941809961861 -0.50690159852297
| 17>  O 0.00000000000000 0.00000000000000 0.00000000000000
| 18>  O 1.06713866538631 0.98717129960580 -1.62357736506780
| 19>  O 0.00000000000000 0.00000000000000 1.41527284498687
| 20>  C -1.27388770944479 0.00000000000000 1.91590645535523
| 21>  C -1.22211457253867 0.06642777988277 3.38831477989974
| 22>  O -2.25742922897412 -0.02585779042736 1.23875652957256
| 23>  C -2.41543940252313 -0.12289611375011 4.08595252694906
| 24>  C -2.44195923478874 -0.03437680070658 5.45887710053507
| 25>  C -1.27275068522395 0.25496212808386 6.17298493884884
| 26>  C -0.08177795586127 0.45060655108151 5.47518008098465
| 27>  C -0.05890441770979 0.35440376081578 4.09544628781756
| 28>  S -1.42666733932306 0.34986111841343 7.90788531117200
| 29>  C 0.24316058065577 0.68495422113854 8.46194522255982
| 30>  H 0.10416325535368 7.34607684664392 4.14087383255362
| 31>  H -0.38882275224257 5.64387294862163 4.21002028523424
| 32>  H -0.85323854703301 6.66443357654391 2.81385647784552
| 33>  H -0.93700004363157 4.40513362395569 2.33421606140266
| 34>  H -1.23507439683237 2.37497021944690 1.02749021968162
| 35>  H 2.84544686618639 2.55882587909200 -0.24576673820719
| 36>  H 3.17295340310622 4.59670965109571 1.10248346369500
| 37>  H -3.31769085302541 -0.33900022625314 3.52707230389961
| 38>  H -3.37188538809726 -0.18808364875198 5.99464715790180
| 39>  H 0.83479761044422 0.68252071425859 5.99988733430662
| 40>  H 0.87046926144621 0.51883617942438 3.56602510045047
| 41>  H 0.18454114424639 0.73729393679500 9.54909076814075
| 42>  H 0.60864534290486 1.64029462399245 8.08374213903351
| 43>  H 0.92507514742305 -0.11949528816653 8.18458994466104
| 44> *
| 45> 
| 46>                          ****END OF INPUT****
================================================================================

                       *****************************
                       * Geometry Optimization Run *
                       *****************************

Geometry optimization settings:
Update method            Update   .... BFGS
Choice of coordinates    CoordSys .... Z-matrix Internals
Initial Hessian          InHess   .... Almoef's Model

Convergence Tolerances:
Energy Change            TolE     ....  5.0000e-06 Eh
Max. Gradient            TolMAXG  ....  3.0000e-04 Eh/bohr
RMS Gradient             TolRMSG  ....  1.0000e-04 Eh/bohr
Max. Displacement        TolMAXD  ....  4.0000e-03 bohr
RMS Displacement         TolRMSD  ....  2.0000e-03 bohr
Strict Convergence                ....  False
------------------------------------------------------------------------------
                        ORCA OPTIMIZATION COORDINATE SETUP
------------------------------------------------------------------------------

The optimization will be done in new redundant internal coordinates
Making redundant internal coordinates   ...  (new redundants) done
Evaluating the initial hessian          ...  (Almloef) done
Evaluating the coordinates              ...  done
Calculating the B-matrix                .... done
Calculating the G-matrix                .... done
Diagonalizing the G-matrix              .... done
Small eigenvalue found = 6.813e-04
Small eigenvalue found = 1.847e-03
Small eigenvalue found = 4.132e-03
Small eigenvalue found = 1.197e-02
Small eigenvalue found = 1.299e-02
Small eigenvalue found = 2.647e-02
The first mode is                       ....   64
The number of degrees of freedom        ....  102

    -----------------------------------------------------------------
                    Redundant Internal Coordinates


    -----------------------------------------------------------------
         Definition                    Initial Value    Approx d2E/dq
    -----------------------------------------------------------------
      1. B(S   1,C   0)                  1.7910         0.386175   
      2. B(C   2,S   1)                  1.7468         0.454240   
      3. B(C   3,C   2)                  1.3937         0.616320   
      4. B(C   4,C   3)                  1.3831         0.640745   
      5. B(C   5,C   4)                  1.3897         0.625563   
      6. B(C   6,C   5)                  1.3933         0.617369   
      7. B(C   7,C   2)                  1.3985         0.605696   
      8. B(C   7,C   6)                  1.3782         0.652421   
      9. B(C   8,C   5)                  1.4775         0.453096   
     10. B(O   9,C   8)                  1.3801         0.580356   
     11. B(O  10,C   8)                  1.1930         1.153901   
     12. B(O  11,O   9)                  1.4153         0.456763   
     13. B(C  12,O  11)                  1.3687         0.605075   
     14. B(C  13,C  12)                  1.4748         0.457532   
     15. B(O  14,C  12)                  1.1944         1.148067   
     16. B(C  15,C  13)                  1.3952         0.612988   
     17. B(C  16,C  15)                  1.3760         0.657696   
     18. B(C  17,C  16)                  1.4003         0.601695   
     19. B(C  18,C  17)                  1.3941         0.615367   
     20. B(C  19,C  18)                  1.3833         0.640430   
     21. B(C  19,C  13)                  1.3914         0.621567   
     22. B(S  20,C  17)                  1.7443         0.458402   
     23. B(C  21,S  20)                  1.7910         0.386167   
     24. B(H  22,C   0)                  1.0900         0.360109   
     25. B(H  23,C   0)                  1.0906         0.359342   
     26. B(H  24,C   0)                  1.0906         0.359351   
     27. B(H  25,C   3)                  1.0813         0.371759   
     28. B(H  26,C   4)                  1.0835         0.368828   
     29. B(H  27,C   6)                  1.0834         0.368946   
     30. B(H  28,C   7)                  1.0842         0.367916   
     31. B(H  29,C  15)                  1.0831         0.369344   
     32. B(H  30,C  16)                  1.0842         0.367887   
     33. B(H  31,C  18)                  1.0813         0.371793   
     34. B(H  32,C  19)                  1.0822         0.370628   
     35. B(H  33,C  21)                  1.0900         0.360124   
     36. B(H  34,C  21)                  1.0905         0.359378   
     37. B(H  35,C  21)                  1.0904         0.359511   
     38. A(H  22,C   0,H  23)          108.8436         0.290744   
     39. A(H  22,C   0,H  24)          108.7656         0.290746   
     40. A(S   1,C   0,H  24)          111.5879         0.342618   
     41. A(S   1,C   0,H  23)          111.5859         0.342616   
     42. A(H  23,C   0,H  24)          110.3658         0.290648   
     43. A(S   1,C   0,H  22)          105.5091         0.342738   
     44. A(C   0,S   1,C   2)          103.4970         0.419917   
     45. A(C   3,C   2,C   7)          119.0102         0.431786   
     46. A(S   1,C   2,C   3)          124.3692         0.432719   
     47. A(S   1,C   2,C   7)          116.6202         0.431369   
     48. A(C   2,C   3,C   4)          120.2744         0.436178   
     49. A(C   4,C   3,H  25)          118.8821         0.356807   
     50. A(C   2,C   3,H  25)          120.8433         0.354461   
     51. A(C   5,C   4,H  26)          120.2581         0.354880   
     52. A(C   3,C   4,H  26)          119.1145         0.356327   
     53. A(C   3,C   4,C   5)          120.6005         0.437350   
     54. A(C   4,C   5,C   6)          119.1567         0.434432   
     55. A(C   4,C   5,C   8)          122.8259         0.411072   
     56. A(C   6,C   5,C   8)          117.8994         0.410112   
     57. A(C   7,C   6,H  27)          120.2952         0.357442   
     58. A(C   5,C   6,H  27)          119.2412         0.354107   
     59. A(C   5,C   6,C   7)          120.4618         0.437734   
     60. A(C   6,C   7,H  28)          119.9087         0.357272   
     61. A(C   2,C   7,H  28)          119.6508         0.352797   
     62. A(C   2,C   7,C   6)          120.4398         0.436231   
     63. A(O   9,C   8,O  10)          115.5727         0.473849   
     64. A(C   5,C   8,O  10)          125.5219         0.455899   
     65. A(C   5,C   8,O   9)          118.8999         0.403044   
     66. A(C   8,O   9,O  11)          111.5490         0.398410   
     67. A(O   9,O  11,C  12)          111.4547         0.401345   
     68. A(C  13,C  12,O  14)          126.5770         0.456288   
     69. A(O  11,C  12,O  14)          123.9896         0.477054   
     70. A(O  11,C  12,C  13)          109.4203         0.406723   
     71. A(C  12,C  13,C  19)          123.0966         0.411315   
     72. A(C  15,C  13,C  19)          119.2748         0.433376   
     73. A(C  12,C  13,C  15)          117.5858         0.410303   
     74. A(C  16,C  15,H  29)          120.7715         0.357997   
     75. A(C  13,C  15,H  29)          118.7871         0.353745   
     76. A(C  13,C  15,C  16)          120.4413         0.437808   
     77. A(C  17,C  16,H  30)          119.5691         0.352397   
     78. A(C  15,C  16,H  30)          120.0309         0.357757   
     79. A(C  15,C  16,C  17)          120.3999         0.436343   
     80. A(C  16,C  17,S  20)          116.4104         0.431562   
     81. A(C  18,C  17,S  20)          124.4423         0.433309   
     82. A(C  16,C  17,C  18)          119.1469         0.431152   
     83. A(C  17,C  18,C  19)          120.2393         0.436018   
     84. A(C  19,C  18,H  31)          119.0068         0.356782   
     85. A(C  17,C  18,H  31)          120.7535         0.354374   
     86. A(C  13,C  19,C  18)          120.4962         0.436806   
     87. A(C  18,C  19,H  32)          119.4465         0.356592   
     88. A(C  13,C  19,H  32)          120.0518         0.354788   
     89. A(C  17,S  20,C  21)          103.6272         0.420599   
     90. A(H  34,C  21,H  35)          110.3939         0.290673   
     91. A(H  33,C  21,H  35)          108.8290         0.290768   
     92. A(S  20,C  21,H  35)          111.4899         0.342642   
     93. A(H  33,C  21,H  34)          108.7753         0.290751   
     94. A(S  20,C  21,H  34)          111.6593         0.342620   
     95. A(S  20,C  21,H  33)          105.5095         0.342739   
     96. D(C   2,S   1,C   0,H  22)    179.5234         0.003898   
     97. D(C   2,S   1,C   0,H  23)     61.4721         0.003898   
     98. D(C   2,S   1,C   0,H  24)    -62.5176         0.003898   
     99. D(C   3,C   2,S   1,C   0)      0.0768         0.004531   
    100. D(C   7,C   2,S   1,C   0)    179.8441         0.004531   
    101. D(C   4,C   3,C   2,C   7)      1.8479         0.026266   
    102. D(C   4,C   3,C   2,S   1)   -178.3900         0.026266   
    103. D(H  25,C   3,C   2,C   7)   -178.3097         0.026266   
    104. D(H  25,C   3,C   2,S   1)      1.4524         0.026266   
    105. D(H  26,C   4,C   3,H  25)      1.1825         0.028529   
    106. D(H  26,C   4,C   3,C   2)   -178.9720         0.028529   
    107. D(C   5,C   4,C   3,H  25)    179.3028         0.028529   
    108. D(C   5,C   4,C   3,C   2)     -0.8517         0.028529   
    109. D(C   6,C   5,C   4,H  26)    176.7603         0.027109   
    110. D(C   6,C   5,C   4,C   3)     -1.3385         0.027109   
    111. D(C   8,C   5,C   4,C   3)   -177.3042         0.027109   
    112. D(C   8,C   5,C   4,H  26)      0.7946         0.027109   
    113. D(H  27,C   6,C   5,C   8)     -1.7852         0.026361   
    114. D(H  27,C   6,C   5,C   4)   -177.9495         0.026361   
    115. D(C   7,C   6,C   5,C   8)    178.6982         0.026361   
    116. D(C   7,C   6,C   5,C   4)      2.5338         0.026361   
    117. D(H  28,C   7,C   6,H  27)     -0.7379         0.029652   
    118. D(H  28,C   7,C   6,C   5)    178.7736         0.029652   
    119. D(C   2,C   7,C   6,H  27)    178.9472         0.029652   
    120. D(C   2,C   7,C   6,C   5)     -1.5413         0.029652   
    121. D(H  28,C   7,C   2,C   3)    179.0287         0.025317   
    122. D(H  28,C   7,C   2,S   1)     -0.7516         0.025317   
    123. D(C   6,C   7,C   2,C   3)     -0.6572         0.025317   
    124. D(C   6,C   7,C   2,S   1)    179.5625         0.025317   
    125. D(O   9,C   8,C   5,C   6)    137.7156         0.013991   
    126. D(O   9,C   8,C   5,C   4)    -46.2708         0.013991   
    127. D(O  10,C   8,C   5,C   6)    -43.1749         0.013991   
    128. D(O  10,C   8,C   5,C   4)    132.8388         0.013991   
    129. D(O  11,O   9,C   8,O  10)    157.9229         0.024498   
    130. D(O  11,O   9,C   8,C   5)    -22.8806         0.024498   
    131. D(C  12,O  11,O   9,C   8)    121.0745         0.015467   
    132. D(O  14,C  12,O  11,O   9)      1.4962         0.026770   
    133. D(C  13,C  12,O  11,O   9)   -177.2626         0.026770   
    134. D(C  19,C  13,C  12,O  14)   -167.0428         0.014262   
    135. D(C  19,C  13,C  12,O  11)     11.6757         0.014262   
    136. D(C  15,C  13,C  12,O  14)     10.5550         0.014262   
    137. D(C  15,C  13,C  12,O  11)   -170.7265         0.014262   
    138. D(H  29,C  15,C  13,C  19)    179.5255         0.025966   
    139. D(H  29,C  15,C  13,C  12)      1.8326         0.025966   
    140. D(C  16,C  15,C  13,C  19)     -0.4006         0.025966   
    141. D(C  16,C  15,C  13,C  12)   -178.0935         0.025966   
    142. D(H  30,C  16,C  15,H  29)      0.4119         0.030169   
    143. D(H  30,C  16,C  15,C  13)   -179.6635         0.030169   
    144. D(C  17,C  16,C  15,H  29)   -179.5362         0.030169   
    145. D(C  17,C  16,C  15,C  13)      0.3884         0.030169   
    146. D(S  20,C  17,C  16,H  30)     -0.2280         0.024966   
    147. D(S  20,C  17,C  16,C  15)    179.7203         0.024966   
    148. D(C  18,C  17,C  16,H  30)    179.9814         0.024966   
    149. D(C  18,C  17,C  16,C  15)     -0.0703         0.024966   
    150. D(H  31,C  18,C  17,S  20)     -0.2266         0.026180   
    151. D(H  31,C  18,C  17,C  16)    179.5460         0.026180   
    152. D(C  19,C  18,C  17,S  20)    179.9944         0.026180   
    153. D(C  19,C  18,C  17,C  16)     -0.2330         0.026180   
    154. D(C  13,C  19,C  18,C  17)      0.2195         0.028499   
    155. D(H  32,C  19,C  13,C  15)   -179.0463         0.026742   
    156. D(H  32,C  19,C  13,C  12)     -1.4873         0.026742   
    157. D(C  18,C  19,C  13,C  15)      0.0962         0.026742   
    158. D(C  18,C  19,C  13,C  12)    177.6553         0.026742   
    159. D(H  32,C  19,C  18,H  31)     -0.4157         0.028499   
    160. D(H  32,C  19,C  18,C  17)    179.3672         0.028499   
    161. D(C  13,C  19,C  18,H  31)   -179.5634         0.028499   
    162. D(C  21,S  20,C  17,C  18)     -1.6462         0.004589   
    163. D(C  21,S  20,C  17,C  16)    178.5756         0.004589   
    164. D(H  35,C  21,S  20,C  17)    -61.2749         0.003898   
    165. D(H  34,C  21,S  20,C  17)     62.7331         0.003898   
    166. D(H  33,C  21,S  20,C  17)   -179.2586         0.003898   
    -----------------------------------------------------------------

Number of atoms                         .... 36
Number of degrees of freedom            .... 166

         *************************************************************
         *                GEOMETRY OPTIMIZATION CYCLE   1            *
         *************************************************************
---------------------------------
CARTESIAN COORDINATES (ANGSTROEM)
---------------------------------
  C     -0.074257    6.450078    3.546369
  S      1.489796    6.080482    2.755983
  C      1.149367    4.636622    1.833692
  C     -0.091366    4.003053    1.793384
  C     -0.258269    2.842695    1.059363
  C      0.800510    2.302714    0.339239
  C      2.028757    2.960408    0.342019
  C      2.207648    4.103303    1.091211
  C      0.662544    1.099418   -0.506902
  O      0.000000    0.000000    0.000000
  O      1.067139    0.987171   -1.623577
  O      0.000000    0.000000    1.415273
  C     -1.273888    0.000000    1.915906
  C     -1.222115    0.066428    3.388315
  O     -2.257429   -0.025858    1.238757
  C     -2.415439   -0.122896    4.085953
  C     -2.441959   -0.034377    5.458877
  C     -1.272751    0.254962    6.172985
  C     -0.081778    0.450607    5.475180
  C     -0.058904    0.354404    4.095446
  S     -1.426667    0.349861    7.907885
  C      0.243161    0.684954    8.461945
  H      0.104163    7.346077    4.140874
  H     -0.388823    5.643873    4.210020
  H     -0.853239    6.664434    2.813856
  H     -0.937000    4.405134    2.334216
  H     -1.235074    2.374970    1.027490
  H      2.845447    2.558826   -0.245767
  H      3.172953    4.596710    1.102483
  H     -3.317691   -0.339000    3.527072
  H     -3.371885   -0.188084    5.994647
  H      0.834798    0.682521    5.999887
  H      0.870469    0.518836    3.566025
  H      0.184541    0.737294    9.549091
  H      0.608645    1.640295    8.083742
  H      0.925075   -0.119495    8.184590

----------------------------
CARTESIAN COORDINATES (A.U.)
----------------------------
  NO LB      ZA    FRAG     MASS         X           Y           Z
   0 C     6.0000    0    12.011   -0.140326   12.188880    6.701666
   1 S    16.0000    0    32.060    2.815306   11.490446    5.208052
   2 C     6.0000    0    12.011    2.171988    8.761946    3.465176
   3 C     6.0000    0    12.011   -0.172656    7.564674    3.389004
   4 C     6.0000    0    12.011   -0.488058    5.371916    2.001906
   5 C     6.0000    0    12.011    1.512744    4.351499    0.641068
   6 C     6.0000    0    12.011    3.833795    5.594361    0.646322
   7 C     6.0000    0    12.011    4.171850    7.754120    2.062089
   8 C     6.0000    0    12.011    1.252027    2.077599   -0.957905
   9 O     8.0000    0    15.999    0.000000    0.000000    0.000000
  10 O     8.0000    0    15.999    2.016600    1.865483   -3.068117
  11 O     8.0000    0    15.999    0.000000    0.000000    2.674478
  12 C     6.0000    0    12.011   -2.407299    0.000000    3.620538
  13 C     6.0000    0    12.011   -2.309462    0.125530    6.402987
  14 O     8.0000    0    15.999   -4.265923   -0.048864    2.340911
  15 C     6.0000    0    12.011   -4.564519   -0.232240    7.721331
  16 C     6.0000    0    12.011   -4.614634   -0.064963   10.315783
  17 C     6.0000    0    12.011   -2.405150    0.481809   11.665251
  18 C     6.0000    0    12.011   -0.154538    0.851523   10.346591
  19 C     6.0000    0    12.011   -0.111313    0.669726    7.739272
  20 S    16.0000    0    32.060   -2.696011    0.661142   14.943738
  21 C     6.0000    0    12.011    0.459507    1.294376   15.990759
  22 H     1.0000    0     1.008    0.196840   13.882073    7.825117
  23 H     1.0000    0     1.008   -0.734769   10.665374    7.955785
  24 H     1.0000    0     1.008   -1.612387   12.593954    5.317418
  25 H     1.0000    0     1.008   -1.770673    8.324496    4.411029
  26 H     1.0000    0     1.008   -2.333952    4.488043    1.941675
  27 H     1.0000    0     1.008    5.377115    4.835480   -0.464432
  28 H     1.0000    0     1.008    5.996013    8.686522    2.083392
  29 H     1.0000    0     1.008   -6.269527   -0.640618    6.665201
  30 H     1.0000    0     1.008   -6.371940   -0.355427   11.328241
  31 H     1.0000    0     1.008    1.577539    1.289777   11.338144
  32 H     1.0000    0     1.008    1.644949    0.980458    6.738811
  33 H     1.0000    0     1.008    0.348732    1.393284   18.045166
  34 H     1.0000    0     1.008    1.150173    3.099708   15.276059
  35 H     1.0000    0     1.008    1.748139   -0.225813   15.466634

--------------------------------
INTERNAL COORDINATES (ANGSTROEM)
--------------------------------
 C      0   0   0     0.000000000000     0.00000000     0.00000000
 S      1   0   0     1.790969818017     0.00000000     0.00000000
 C      2   1   0     1.746780929995   103.49703222     0.00000000
 C      3   2   1     1.393718459520   124.36918170     0.07682297
 C      4   3   2     1.383138688329   120.27439762   181.60997218
 C      5   4   3     1.389666017657   120.60050203   359.14829865
 C      6   5   4     1.393255545064   119.15672375   358.66151732
 C      7   6   5     1.378223229504   120.46180539     2.53383799
 C      6   5   4     1.477466986255   122.82593719   182.69580816
 O      9   6   5     1.380084896203   118.89987975   313.72924568
 O      9   6   5     1.193004913083   125.52191253   132.83876530
 O     10   9   6     1.415272844987   111.54903739   337.11941713
 C     12  10   9     1.368730765383   111.45466078   121.07450275
 C     13  12  10     1.474815033092   109.42032141   182.73741157
 O     13  12  10     1.194384598005   123.98959865     1.49620750
 C     14  13  12     1.395193933712   117.58575536   189.27346256
 C     16  14  13     1.376030833609   120.44129595   181.90648253
 C     17  16  14     1.400255566970   120.39992501     0.38844050
 C     18  17  16     1.394139305089   119.14686446   359.92970699
 C     19  18  17     1.383272755320   120.23932774   359.76697987
 S     18  17  16     1.744297983907   116.41043178   179.72028820
 C     21  18  17     1.790976006328   103.62720090   178.57561880
 H      1   2   3     1.089992880213   105.50910599   179.52342869
 H      1   2   3     1.090573504139   111.58592171    61.47211732
 H      1   2   3     1.090566449636   111.58785041   297.48242808
 H      4   3   2     1.081326236832   120.84329981     1.45240478
 H      5   4   3     1.083480942612   119.11451180   181.02803207
 H      7   6   5     1.083394137146   119.24119758   182.05045369
 H      8   7   6     1.084154903776   119.90872766   178.77361985
 H     16  14  13     1.083100074365   118.78711222     1.83264212
 H     17  16  14     1.084176184997   120.03093279   180.33653865
 H     19  18  17     1.081301368500   120.75351253   179.54600540
 H     20  19  18     1.082155372130   119.44648422   179.36717552
 H     22  21  18     1.089982165651   105.50954915   180.74135630
 H     22  21  18     1.090546637769   111.65925285    62.73308778
 H     22  21  18     1.090445981958   111.48990618   298.72507539

---------------------------
INTERNAL COORDINATES (A.U.)
---------------------------
 C      0   0   0     0.000000000000     0.00000000     0.00000000
 S      1   0   0     3.384442470171     0.00000000     0.00000000
 C      2   1   0     3.300937573646   103.49703222     0.00000000
 C      3   2   1     2.633746196283   124.36918170     0.07682297
 C      4   3   2     2.613753326172   120.27439762   181.60997218
 C      5   4   3     2.626088190988   120.60050203   359.14829865
 C      6   5   4     2.632871414738   119.15672375   358.66151732
 C      7   6   5     2.604464455171   120.46180539     2.53383799
 C      6   5   4     2.792007975932   122.82593719   182.69580816
 O      9   6   5     2.607982495384   118.89987975   313.72924568
 O      9   6   5     2.254452562149   125.52191253   132.83876530
 O     10   9   6     2.674478081801   111.54903739   337.11941713
 C     12  10   9     2.586526297646   111.45466078   121.07450275
 C     13  12  10     2.786996510733   109.42032141   182.73741157
 O     13  12  10     2.257059788803   123.98959865     1.49620750
 C     14  13  12     2.636534438423   117.58575536   189.27346256
 C     16  14  13     2.600321427352   120.44129595   181.90648253
 C     17  16  14     2.646099539072   120.39992501     0.38844050
 C     18  17  16     2.634541479154   119.14686446   359.92970699
 C     19  18  17     2.614006676069   120.23932774   359.76697987
 S     18  17  16     3.296245485535   116.41043178   179.72028820
 C     21  18  17     3.384454164384   103.62720090   178.57561880
 H      1   2   3     2.059788031526   105.50910599   179.52342869
 H      1   2   3     2.060885251733   111.58592171    61.47211732
 H      1   2   3     2.060871920655   111.58785041   297.48242808
 H      4   3   2     2.043410449036   120.84329981     1.45240478
 H      5   4   3     2.047482252859   119.11451180   181.02803207
 H      7   6   5     2.047318214302   119.24119758   182.05045369
 H      8   7   6     2.048755854885   119.90872766   178.77361985
 H     16  14  13     2.046762516180   118.78711222     1.83264212
 H     17  16  14     2.048796070563   120.03093279   180.33653865
 H     19  18  17     2.043363454698   120.75351253   179.54600540
 H     20  19  18     2.044977287678   119.44648422   179.36717552
 H     22  21  18     2.059767783938   105.50954915   180.74135630
 H     22  21  18     2.060834481653   111.65925285    62.73308778
 H     22  21  18     2.060644269736   111.48990618   298.72507539

---------------------
BASIS SET INFORMATION
---------------------
There are 4 groups of distinct atoms

 Group   1 Type C   : 11s6p2d1f contracted to 5s3p2d1f pattern {62111/411/11/1}
 Group   2 Type S   : 14s9p3d1f contracted to 5s5p2d1f pattern {73211/51111/21/1}
 Group   3 Type O   : 11s6p2d1f contracted to 5s3p2d1f pattern {62111/411/11/1}
 Group   4 Type H   : 5s1p contracted to 3s1p pattern {311/1}

Atom   0C    basis set group =>   1
Atom   1S    basis set group =>   2
Atom   2C    basis set group =>   1
Atom   3C    basis set group =>   1
Atom   4C    basis set group =>   1
Atom   5C    basis set group =>   1
Atom   6C    basis set group =>   1
Atom   7C    basis set group =>   1
Atom   8C    basis set group =>   1
Atom   9O    basis set group =>   3
Atom  10O    basis set group =>   3
Atom  11O    basis set group =>   3
Atom  12C    basis set group =>   1
Atom  13C    basis set group =>   1
Atom  14O    basis set group =>   3
Atom  15C    basis set group =>   1
Atom  16C    basis set group =>   1
Atom  17C    basis set group =>   1
Atom  18C    basis set group =>   1
Atom  19C    basis set group =>   1
Atom  20S    basis set group =>   2
Atom  21C    basis set group =>   1
Atom  22H    basis set group =>   4
Atom  23H    basis set group =>   4
Atom  24H    basis set group =>   4
Atom  25H    basis set group =>   4
Atom  26H    basis set group =>   4
Atom  27H    basis set group =>   4
Atom  28H    basis set group =>   4
Atom  29H    basis set group =>   4
Atom  30H    basis set group =>   4
Atom  31H    basis set group =>   4
Atom  32H    basis set group =>   4
Atom  33H    basis set group =>   4
Atom  34H    basis set group =>   4
Atom  35H    basis set group =>   4
---------------------------------
AUXILIARY/J BASIS SET INFORMATION
---------------------------------
There are 4 groups of distinct atoms

 Group   1 Type C   : 12s5p4d2f1g contracted to 6s4p3d1f1g pattern {711111/2111/211/2/1}
 Group   2 Type S   : 14s5p5d2f1g contracted to 8s4p3d1f1g pattern {71111111/2111/311/2/1}
 Group   3 Type O   : 12s5p4d2f1g contracted to 6s4p3d1f1g pattern {711111/2111/211/2/1}
 Group   4 Type H   : 5s2p1d contracted to 3s1p1d pattern {311/2/1}

Atom   0C    basis set group =>   1
Atom   1S    basis set group =>   2
Atom   2C    basis set group =>   1
Atom   3C    basis set group =>   1
Atom   4C    basis set group =>   1
Atom   5C    basis set group =>   1
Atom   6C    basis set group =>   1
Atom   7C    basis set group =>   1
Atom   8C    basis set group =>   1
Atom   9O    basis set group =>   3
Atom  10O    basis set group =>   3
Atom  11O    basis set group =>   3
Atom  12C    basis set group =>   1
Atom  13C    basis set group =>   1
Atom  14O    basis set group =>   3
Atom  15C    basis set group =>   1
Atom  16C    basis set group =>   1
Atom  17C    basis set group =>   1
Atom  18C    basis set group =>   1
Atom  19C    basis set group =>   1
Atom  20S    basis set group =>   2
Atom  21C    basis set group =>   1
Atom  22H    basis set group =>   4
Atom  23H    basis set group =>   4
Atom  24H    basis set group =>   4
Atom  25H    basis set group =>   4
Atom  26H    basis set group =>   4
Atom  27H    basis set group =>   4
Atom  28H    basis set group =>   4
Atom  29H    basis set group =>   4
Atom  30H    basis set group =>   4
Atom  31H    basis set group =>   4
Atom  32H    basis set group =>   4
Atom  33H    basis set group =>   4
Atom  34H    basis set group =>   4
Atom  35H    basis set group =>   4


           ************************************************************
           *        Program running with 8 parallel MPI-processes     *
           *              working on a common directory               *
           ************************************************************
------------------------------------------------------------------------------
                           ORCA GTO INTEGRAL CALCULATION
                           -- RI-GTO INTEGRALS CHOSEN --
------------------------------------------------------------------------------
------------------------------------------------------------------------------
                   ___                                                        
                  /   \      - P O W E R E D   B Y -                         
                 /     \                                                     
                 |  |  |   _    _      __       _____    __    __             
                 |  |  |  | |  | |    /  \     |  _  \  |  |  /  |          
                  \  \/   | |  | |   /    \    | | | |  |  | /  /          
                 / \  \   | |__| |  /  /\  \   | |_| |  |  |/  /          
                |  |  |   |  __  | /  /__\  \  |    /   |      \           
                |  |  |   | |  | | |   __   |  |    \   |  |\   \          
                \     /   | |  | | |  |  |  |  | |\  \  |  | \   \       
                 \___/    |_|  |_| |__|  |__|  |_| \__\ |__|  \__/        
                                                                              
                      - O R C A' S   B I G   F R I E N D -                    
                                      &                                       
                       - I N T E G R A L  F E E D E R -                       
                                                                              
 v1 FN, 2020, v2 2021                                                         
------------------------------------------------------------------------------


Reading SHARK input file /burg/berkelbach/users/eav2136/projects/peroxide_dissociation/05_range_separated_functional/wb97x-v-peroxide-nmf/wb97x-v-peroxide-nmf_opt.SHARKINP.tmp ... ok
----------------------
SHARK INTEGRAL PACKAGE
----------------------

Number of atoms                             ...     36
Number of basis functions                   ...    778
Number of shells                            ...    302
Maximum angular momentum                    ...      3
Integral batch strategy                     ... SHARK/LIBINT Hybrid
RI-J (if used) integral strategy            ... SPLIT-RIJ (Revised 2003 algorithm where possible)
Printlevel                                  ...      1
Contraction scheme used                     ... SEGMENTED contraction
Coulomb Range Separation                    ... NOT USED
Exchange Range Separation                   ... Long Range
   Mu parameter                             ...  0.300000
   Scaling (regular/separated)              ...  0.167000  0.833000
Finite Nucleus Model                        ... NOT USED
Auxiliary Coulomb fitting basis             ... AVAILABLE
   # of basis functions in Aux-J            ...   1236
   # of shells in Aux-J                     ...    404
   Maximum angular momentum in Aux-J        ...      4
Auxiliary J/K fitting basis                 ... NOT available
Auxiliary Correlation fitting basis         ... NOT available
Auxiliary 'external' fitting basis          ... NOT available
Integral threshold                          ...     2.500000e-11
Primitive cut-off                           ...     2.500000e-12
Primitive pair pre-selection threshold      ...     2.500000e-12

Calculating pre-screening integrals         ... done (  0.1 sec) Dimension = 302
Organizing shell pair data                  ... done (  0.7 sec)
Shell pair information
Total number of shell pairs                 ...     45753
Shell pairs after pre-screening             ...     30707
Total number of primitive shell pairs       ...    145545
Primitive shell pairs kept                  ...     63502
          la=0 lb=0:   7523 shell pairs
          la=1 lb=0:   8937 shell pairs
          la=1 lb=1:   2674 shell pairs
          la=2 lb=0:   4331 shell pairs
          la=2 lb=1:   2602 shell pairs
          la=2 lb=2:    662 shell pairs
          la=3 lb=0:   2019 shell pairs
          la=3 lb=1:   1229 shell pairs
          la=3 lb=2:    589 shell pairs
          la=3 lb=3:    141 shell pairs

Calculating one electron integrals          ... done (  0.4 sec)
Calculating RI/J V-Matrix + Cholesky decomp.... done (  1.4 sec)
Calculating Nuclear repulsion               ... done (  0.0 sec) ENN=   1970.142246923818 Eh

SHARK setup successfully completed in   8.1 seconds

Maximum memory used throughout the entire GTOINT-calculation: 49.0 MB


           ************************************************************
           *        Program running with 8 parallel MPI-processes     *
           *              working on a common directory               *
           ************************************************************
-------------------------------------------------------------------------------
                                 ORCA SCF
-------------------------------------------------------------------------------

------------
SCF SETTINGS
------------
Hamiltonian:
 Density Functional     Method          .... DFT(GTOs)
 Exchange Functional    Exchange        .... WB97X-V
 Correlation Functional Correlation     .... WB97X-V
 Gradients option       PostSCFGGA      .... off
 Hybrid DFT is turned on
   Fraction HF Exchange ScalHFX         ....  0.167000
   Scaling of DF-GGA-X  ScalDFX         ....  0.000000
   Scaling of DF-GGA-C  ScalDFC         ....  1.000000
   Scaling of DF-LDA-C  ScalLDAC        ....  1.000000
   Perturbative correction              ....  0.000000
   Density functional embedding theory  .... OFF
 Long-range corrected/Screened/Range-Separated Hybrid DFT is turned on
   Amount of maximum screened exact exchange              ....  0.833000
   Range separation parameter mu (erf(mu*r12)/r12)        ....  0.300000
   NL short-range parameter             ....  6.000000
   NL long-range parameter              ....  0.010000
 RI-approximation to the Coulomb term is turned on
   Number of AuxJ basis functions       .... 1236
   RIJ-COSX (HFX calculated with COS-X)).... on


General Settings:
 Integral files         IntName         .... /burg/berkelbach/users/eav2136/projects/peroxide_dissociation/05_range_separated_functional/wb97x-v-peroxide-nmf/wb97x-v-peroxide-nmf_opt
 Hartree-Fock type      HFTyp           .... UHF
 Total Charge           Charge          ....    0
 Multiplicity           Mult            ....    1
 Number of Electrons    NEL             ....  174
 Basis Dimension        Dim             ....  778
 Nuclear Repulsion      ENuc            ....   1970.1422469238 Eh

Convergence Acceleration:
 DIIS                   CNVDIIS         .... on
   Start iteration      DIISMaxIt       ....    12
   Startup error        DIISStart       ....  0.200000
   # of expansion vecs  DIISMaxEq       ....     5
   Bias factor          DIISBfac        ....   1.050
   Max. coefficient     DIISMaxC        ....  10.000
 Trust-Rad. Augm. Hess. CNVTRAH         .... off
 SOSCF                  CNVSOSCF        .... off
 Level Shifting         CNVShift        .... on
   Level shift para.    LevelShift      ....    0.2500
   Turn off err/grad.   ShiftErr        ....    0.0010
 Zerner damping         CNVZerner       .... off
 Static damping         CNVDamp         .... on
   Fraction old density DampFac         ....    0.7000
   Max. Damping (<1)    DampMax         ....    0.9800
   Min. Damping (>=0)   DampMin         ....    0.0000
   Turn off err/grad.   DampErr         ....    0.1000
 Fernandez-Rico         CNVRico         .... off

SCF Procedure:
 Maximum # iterations   MaxIter         ....   125
 SCF integral mode      SCFMode         .... Direct
   Integral package                     .... SHARK and LIBINT hybrid scheme
 Reset frequency        DirectResetFreq ....    20
 Integral Threshold     Thresh          ....  2.500e-11 Eh
 Primitive CutOff       TCut            ....  2.500e-12 Eh

Convergence Tolerance:
 Convergence Check Mode ConvCheckMode   .... Total+1el-Energy
 Convergence forced     ConvForced      .... 0
 Energy Change          TolE            ....  1.000e-08 Eh
 1-El. energy change                    ....  1.000e-05 Eh
 DIIS Error             TolErr          ....  5.000e-07


Diagonalization of the overlap matrix:
Smallest eigenvalue                        ... 6.410e-06
Time for diagonalization                   ...    0.110 sec
Threshold for overlap eigenvalues          ... 1.000e-08
Number of eigenvalues below threshold      ... 0
Time for construction of square roots      ...    0.157 sec
Total time needed                          ...    0.270 sec

Time for model grid setup =    1.725 sec

------------------------------
INITIAL GUESS: MODEL POTENTIAL
------------------------------
Loading Hartree-Fock densities                     ... done
Calculating cut-offs                               ... done
Initializing the effective Hamiltonian             ... done
Setting up the integral package (SHARK)            ... done
Starting the Coulomb interaction                   ... done (   2.8 sec)
Reading the grid                                   ... done
Mapping shells                                     ... done
Starting the XC term evaluation                    ... done (   0.5 sec)
  promolecular density results
     # of electrons  =    174.001529421
     EX              =   -117.622368577
     EC              =     -7.625477679
     EX+EC           =   -125.247846256
Transforming the Hamiltonian                       ... done (   0.2 sec)
Diagonalizing the Hamiltonian                      ... done (   0.1 sec)
Back transforming the eigenvectors                 ... done (   0.0 sec)
Now organizing SCF variables                       ... done
                      ------------------
                      INITIAL GUESS DONE (   5.4 sec)
                      ------------------
-------------------
DFT GRID GENERATION
-------------------

General Integration Accuracy     IntAcc      ... 4.388
Radial Grid Type                 RadialGrid  ... OptM3 with GC (2021)
Angular Grid (max. ang.)         AngularGrid ... 4 (Lebedev-302)
Angular grid pruning method      GridPruning ... 4 (adaptive)
Weight generation scheme         WeightScheme... Becke
Basis function cutoff            BFCut       ... 1.0000e-11
Integration weight cutoff        WCut        ... 1.0000e-14
Angular grids for H and He will be reduced by one unit
Partially contracted basis set               ... off
Rotationally invariant grid construction     ... off

Total number of grid points                  ...   179155
Total number of batches                      ...     2817
Average number of points per batch           ...       63
Average number of grid points per atom       ...     4977

------------------
NL GRID GENERATION
------------------

General Integration Accuracy     IntAcc      ... 4.004
Radial Grid Type                 RadialGrid  ... OptM3 with GC (2021)
Angular Grid (max. ang.)         AngularGrid ... 2 (Lebedev-110)
Angular grid pruning method      GridPruning ... 4 (adaptive)
Weight generation scheme         WeightScheme... Becke
Basis function cutoff            BFCut       ... 1.0000e-10
Integration weight cutoff        WCut        ... 1.0000e-14
Angular grids for H and He will be reduced by one unit
Partially contracted basis set               ... off
Rotationally invariant grid construction     ... off

Total number of grid points                  ...    57317
Total number of batches                      ...      916
Average number of points per batch           ...       62
Average number of grid points per atom       ...     1592
Time for grid setup =    1.437 sec

--------------------
COSX GRID GENERATION
--------------------

GRIDX 1
-------
General Integration Accuracy     IntAcc      ... 3.816
Radial Grid Type                 RadialGrid  ... OptM3 with GC (2021)
Angular Grid (max. ang.)         AngularGrid ... 1 (Lebedev-50)
Angular grid pruning method      GridPruning ... 4 (adaptive)
Weight generation scheme         WeightScheme... Becke
Basis function cutoff            BFCut       ... 1.0000e-11
Integration weight cutoff        WCut        ... 1.0000e-14
Angular grids for H and He will be reduced by one unit
Partially contracted basis set               ... on
Rotationally invariant grid construction     ... off

Total number of grid points                  ...    22611
Total number of batches                      ...      371
Average number of points per batch           ...       60
Average number of grid points per atom       ...      628
UseSFitting                                  ... on

GRIDX 2
-------
General Integration Accuracy     IntAcc      ... 4.020
Radial Grid Type                 RadialGrid  ... OptM3 with GC (2021)
Angular Grid (max. ang.)         AngularGrid ... 2 (Lebedev-110)
Angular grid pruning method      GridPruning ... 4 (adaptive)
Weight generation scheme         WeightScheme... Becke
Basis function cutoff            BFCut       ... 1.0000e-11
Integration weight cutoff        WCut        ... 1.0000e-14
Angular grids for H and He will be reduced by one unit
Partially contracted basis set               ... on
Rotationally invariant grid construction     ... off

Total number of grid points                  ...    49564
Total number of batches                      ...      788
Average number of points per batch           ...       62
Average number of grid points per atom       ...     1377
UseSFitting                                  ... on

GRIDX 3
-------
General Integration Accuracy     IntAcc      ... 4.338
Radial Grid Type                 RadialGrid  ... OptM3 with GC (2021)
Angular Grid (max. ang.)         AngularGrid ... 3 (Lebedev-194)
Angular grid pruning method      GridPruning ... 4 (adaptive)
Weight generation scheme         WeightScheme... Becke
Basis function cutoff            BFCut       ... 1.0000e-11
Integration weight cutoff        WCut        ... 1.0000e-14
Angular grids for H and He will be reduced by one unit
Partially contracted basis set               ... on
Rotationally invariant grid construction     ... off

Total number of grid points                  ...   109616
Total number of batches                      ...     1732
Average number of points per batch           ...       63
Average number of grid points per atom       ...     3045
UseSFitting                                  ... on

Time for X-Grid setup             =    2.318 sec


--------------------
CPCM SOLVATION MODEL
--------------------
CPCM parameters:
  Epsilon                                         ...     181.5600
  Refrac                                          ...       1.4319
  Rsolv                                           ...       1.3000
  Surface type                                    ... GAUSSIAN VDW
  Epsilon function type                           ...         CPCM
Solvent:                                     ... N-METHYLFORMAMIDE
SMD-CDS solvent descriptors:
  Soln                                       ...    1.4319
  Soln25                                     ...    1.4310
  Sola                                       ...    0.4000
  Solb                                       ...    0.5500
  Solg                                       ...   55.4400
  Solc                                       ...    0.0000
  Solh                                       ...    0.0000
Radii:
 Radius for C  used is    3.4960 Bohr (=   1.8500 Ang.)
 Radius for S  used is    4.7054 Bohr (=   2.4900 Ang.)
 Radius for O  used is    2.9744 Bohr (=   1.5740 Ang.)
 Radius for H  used is    2.2677 Bohr (=   1.2000 Ang.)
Calculating surface                               ...        done! (  0.1s)
GEPOL surface points                              ...         2065
GEPOL Volume                                      ...    2336.5492
GEPOL Surface-area                                ...    1275.8624
Calculating surface distance matrix               ...        done! (  0.0s)
Performing Cholesky decomposition & store         ...        done! (  0.2s)
Overall time for CPCM initialization              ...                 0.4s
--------------
SCF ITERATIONS
--------------
ITER       Energy         Delta-E        Max-DP      RMS-DP      [F,P]     Damp
               ***  Starting incremental Fock matrix formation  ***
  0  -1714.9858121168   0.000000000000 0.14037399  0.00068873  0.1787800 0.7000
  1  -1715.1309659131  -0.145153796315 0.12448008  0.00064126  0.1179456 0.7000
                               ***Turning on DIIS***
  2  -1715.2064876274  -0.075521714277 0.31461502  0.00165291  0.0813733 0.0000
  3  -1715.3423762927  -0.135888665242 0.03055288  0.00017348  0.0253232 0.0000
  4  -1715.3590174865  -0.016641193886 0.01297057  0.00007892  0.0077082 0.0000
  5  -1715.3602636340  -0.001246147471 0.00741194  0.00004389  0.0032814 0.0000
  6  -1715.3605934350  -0.000329800950 0.00536178  0.00003436  0.0009946 0.0000
               *** Restarting incremental Fock matrix formation ***
                                   *** Resetting DIIS ***
  7  -1715.3607167793  -0.000123344327 0.00127572  0.00001552  0.0005397 0.0000
  8  -1715.3607322870  -0.000015507705 0.00025553  0.00000307  0.0005798 0.0000
  9  -1715.3607390379  -0.000006750905 0.00044895  0.00000503  0.0001912 0.0000
 10  -1715.3607418640  -0.000002826102 0.00020801  0.00000215  0.0001096 0.0000
 11  -1715.3607422228  -0.000000358761 0.00005055  0.00000055  0.0000551 0.0000
 12  -1715.3607422723  -0.000000049527 0.00005570  0.00000053  0.0000209 0.0000
 13  -1715.3607423020  -0.000000029747 0.00005348  0.00000050  0.0000087 0.0000
 14  -1715.3607423318  -0.000000029755 0.00002852  0.00000031  0.0000069 0.0000
 15  -1715.3607423357  -0.000000003949 0.00003075  0.00000028  0.0000023 0.0000
                            ***DIIS convergence achieved***

               *****************************************************
               *                     SUCCESS                       *
               *           SCF CONVERGED AFTER  16 CYCLES          *
               *****************************************************

Old exchange energy                            =    -51.374647719 Eh
New exchange energy                            =    -51.374622069 Eh
Exchange energy change after final integration =      0.000025650 Eh
Total energy after final integration           =  -1715.360716705 Eh
Final COS-X integration done in                =    45.121 sec

SMD CDS free energy correction energy :                 3.56927     Kcal/mol
Total Energy after SMD CDS correction =             -1715.355028710 Eh

----------------
TOTAL SCF ENERGY
----------------

Total Energy       :        -1715.35502871 Eh          -46677.18335 eV

Components:
Nuclear Repulsion  :         1970.14224692 Eh           53610.29603 eV
Electronic Energy  :        -3685.49727563 Eh         -100287.47939 eV
One Electron Energy:        -6266.83882311 Eh         -170529.35392 eV
Two Electron Energy:         2581.34154748 Eh           70241.87453 eV
Max COSX asymmetry :            0.00000046 Eh               0.00001 eV
CPCM Dielectric    :           -0.03600767 Eh              -0.97982 eV
SMD CDS (Gcds)     :            0.00568799 Eh               0.15478 eV

Virial components:
Potential Energy   :        -3426.15205674 Eh          -93230.33720 eV
Kinetic Energy     :         1710.79702803 Eh           46553.15385 eV
Virial Ratio       :            2.00266426


DFT components:
N(Alpha)           :       86.999993857474 electrons
N(Beta)            :       86.999993857474 electrons
N(Total)           :      173.999987714948 electrons
E(X)               :     -119.241070512053 Eh       
E(C)               :       -7.660849525573 Eh       
NL Energy, E(C,NL) :        0.660865458688 Eh       
E(XC)              :     -126.241054578938 Eh       
DFET-embed. en.    :        0.000000000000 Eh       
CPCM Solvation Model Properties:
Surface-charge          :           -0.04995197
Charge-correction       :            0.00019879 Eh               0.00541 eV
Free-energy (cav+disp)  :            0.00568799 Eh               0.15478 eV

---------------
SCF CONVERGENCE
---------------

  Last Energy change         ...   -1.9363e-08  Tolerance :   1.0000e-08
  Last MAX-Density change    ...    0.0000e+00  Tolerance :   1.0000e-07
  Last RMS-Density change    ...    0.0000e+00  Tolerance :   5.0000e-09
  Last DIIS Error            ...    9.2303e-07  Tolerance :   5.0000e-07

             **** THE GBW FILE WAS UPDATED (/burg/berkelbach/users/eav2136/projects/peroxide_dissociation/05_range_separated_functional/wb97x-v-peroxide-nmf/wb97x-v-peroxide-nmf_opt.gbw) ****
             **** DENSITY /burg/berkelbach/users/eav2136/projects/peroxide_dissociation/05_range_separated_functional/wb97x-v-peroxide-nmf/wb97x-v-peroxide-nmf_opt.scfp WAS UPDATED ****
             **** ENERGY FILE WAS UPDATED (/burg/berkelbach/users/eav2136/projects/peroxide_dissociation/05_range_separated_functional/wb97x-v-peroxide-nmf/wb97x-v-peroxide-nmf_opt.en.tmp) ****
----------------------
UHF SPIN CONTAMINATION
----------------------

Warning: in a DFT calculation there is little theoretical justification to 
         calculate <S**2> as in Hartree-Fock theory. We will do it anyways
         but you should keep in mind that the values have only limited relevance

Expectation value of <S**2>     :     0.000000
Ideal value S*(S+1) for S=0.0   :     0.000000
Deviation                       :     0.000000

             **** THE GBW FILE WAS UPDATED (/burg/berkelbach/users/eav2136/projects/peroxide_dissociation/05_range_separated_functional/wb97x-v-peroxide-nmf/wb97x-v-peroxide-nmf_opt.gbw) ****
             **** DENSITY /burg/berkelbach/users/eav2136/projects/peroxide_dissociation/05_range_separated_functional/wb97x-v-peroxide-nmf/wb97x-v-peroxide-nmf_opt.scfp WAS UPDATED ****
----------------
ORBITAL ENERGIES
----------------
                 SPIN UP ORBITALS
  NO   OCC          E(Eh)            E(eV) 
   0   1.0000     -88.867816     -2418.2162 
   1   1.0000     -88.866597     -2418.1830 
   2   1.0000     -19.335695      -526.1510 
   3   1.0000     -19.334657      -526.1228 
   4   1.0000     -19.231966      -523.3284 
   5   1.0000     -19.227408      -523.2044 
   6   1.0000     -10.430939      -283.8403 
   7   1.0000     -10.427081      -283.7353 
   8   1.0000     -10.322368      -280.8859 
   9   1.0000     -10.320309      -280.8299 
  10   1.0000     -10.297260      -280.2027 
  11   1.0000     -10.295408      -280.1523 
  12   1.0000     -10.291489      -280.0457 
  13   1.0000     -10.291471      -280.0452 
  14   1.0000     -10.289554      -279.9930 
  15   1.0000     -10.289102      -279.9807 
  16   1.0000     -10.287688      -279.9422 
  17   1.0000     -10.287261      -279.9306 
  18   1.0000     -10.281727      -279.7800 
  19   1.0000     -10.281505      -279.7740 
  20   1.0000     -10.281301      -279.7684 
  21   1.0000     -10.281046      -279.7615 
  22   1.0000      -8.046565      -218.9582 
  23   1.0000      -8.045332      -218.9246 
  24   1.0000      -6.002690      -163.3415 
  25   1.0000      -6.001480      -163.3086 
  26   1.0000      -5.998428      -163.2255 
  27   1.0000      -5.997235      -163.1931 
  28   1.0000      -5.993954      -163.1038 
  29   1.0000      -5.992666      -163.0687 
  30   1.0000      -1.346322       -36.6353 
  31   1.0000      -1.237425       -33.6721 
  32   1.0000      -1.204349       -32.7720 
  33   1.0000      -1.104705       -30.0606 
  34   1.0000      -1.022701       -27.8291 
  35   1.0000      -1.021365       -27.7928 
  36   1.0000      -0.954533       -25.9742 
  37   1.0000      -0.952627       -25.9223 
  38   1.0000      -0.898879       -24.4597 
  39   1.0000      -0.896814       -24.4036 
  40   1.0000      -0.890443       -24.2302 
  41   1.0000      -0.888041       -24.1648 
  42   1.0000      -0.818565       -22.2743 
  43   1.0000      -0.802799       -21.8453 
  44   1.0000      -0.769018       -20.9260 
  45   1.0000      -0.751463       -20.4483 
  46   1.0000      -0.749798       -20.4030 
  47   1.0000      -0.732898       -19.9432 
  48   1.0000      -0.709326       -19.3017 
  49   1.0000      -0.697472       -18.9792 
  50   1.0000      -0.678969       -18.4757 
  51   1.0000      -0.667782       -18.1713 
  52   1.0000      -0.636238       -17.3129 
  53   1.0000      -0.617189       -16.7946 
  54   1.0000      -0.601321       -16.3628 
  55   1.0000      -0.598238       -16.2789 
  56   1.0000      -0.585594       -15.9348 
  57   1.0000      -0.582249       -15.8438 
  58   1.0000      -0.578586       -15.7441 
  59   1.0000      -0.566611       -15.4183 
  60   1.0000      -0.562959       -15.3189 
  61   1.0000      -0.554124       -15.0785 
  62   1.0000      -0.546640       -14.8748 
  63   1.0000      -0.542233       -14.7549 
  64   1.0000      -0.541812       -14.7435 
  65   1.0000      -0.540730       -14.7140 
  66   1.0000      -0.532225       -14.4826 
  67   1.0000      -0.513689       -13.9782 
  68   1.0000      -0.509769       -13.8715 
  69   1.0000      -0.505579       -13.7575 
  70   1.0000      -0.502669       -13.6783 
  71   1.0000      -0.478050       -13.0084 
  72   1.0000      -0.474053       -12.8996 
  73   1.0000      -0.470912       -12.8142 
  74   1.0000      -0.458168       -12.4674 
  75   1.0000      -0.456836       -12.4312 
  76   1.0000      -0.438771       -11.9396 
  77   1.0000      -0.427850       -11.6424 
  78   1.0000      -0.426561       -11.6073 
  79   1.0000      -0.420762       -11.4495 
  80   1.0000      -0.416552       -11.3349 
  81   1.0000      -0.403823       -10.9886 
  82   1.0000      -0.399482       -10.8704 
  83   1.0000      -0.366167        -9.9639 
  84   1.0000      -0.362774        -9.8716 
  85   1.0000      -0.309669        -8.4265 
  86   1.0000      -0.308181        -8.3860 
  87   0.0000       0.010486         0.2853 
  88   0.0000       0.024966         0.6794 
  89   0.0000       0.057105         1.5539 
  90   0.0000       0.059544         1.6203 
  91   0.0000       0.081429         2.2158 
  92   0.0000       0.106950         2.9103 
  93   0.0000       0.112207         3.0533 
  94   0.0000       0.115832         3.1520 
  95   0.0000       0.126289         3.4365 
  96   0.0000       0.127969         3.4822 
  97   0.0000       0.141207         3.8424 
  98   0.0000       0.152872         4.1599 
  99   0.0000       0.154712         4.2099 
 100   0.0000       0.162694         4.4271 
 101   0.0000       0.166466         4.5298 
 102   0.0000       0.168406         4.5826 
 103   0.0000       0.179157         4.8751 
 104   0.0000       0.185466         5.0468 
 105   0.0000       0.190918         5.1951 
 106   0.0000       0.191650         5.2151 
 107   0.0000       0.193394         5.2625 
 108   0.0000       0.198076         5.3899 
 109   0.0000       0.202761         5.5174 
 110   0.0000       0.208722         5.6796 
 111   0.0000       0.214356         5.8329 
 112   0.0000       0.217749         5.9252 
 113   0.0000       0.220836         6.0093 
 114   0.0000       0.227123         6.1803 
 115   0.0000       0.234386         6.3780 
 116   0.0000       0.242455         6.5975 
 117   0.0000       0.244601         6.6559 
 118   0.0000       0.254832         6.9343 
 119   0.0000       0.261530         7.1166 
 120   0.0000       0.269876         7.3437 
 121   0.0000       0.277853         7.5608 
 122   0.0000       0.282476         7.6866 
 123   0.0000       0.286645         7.8000 
 124   0.0000       0.290338         7.9005 
 125   0.0000       0.295569         8.0428 
 126   0.0000       0.299853         8.1594 
 127   0.0000       0.302880         8.2418 
 128   0.0000       0.304986         8.2991 
 129   0.0000       0.309312         8.4168 
 130   0.0000       0.313523         8.5314 
 131   0.0000       0.318755         8.6738 
 132   0.0000       0.323972         8.8157 
 133   0.0000       0.325339         8.8529 
 134   0.0000       0.329335         8.9617 
 135   0.0000       0.333425         9.0729 
 136   0.0000       0.339074         9.2267 
 137   0.0000       0.340286         9.2597 
 138   0.0000       0.342291         9.3142 
 139   0.0000       0.345626         9.4050 
 140   0.0000       0.352169         9.5830 
 141   0.0000       0.366013         9.9597 
 142   0.0000       0.370927        10.0934 
 143   0.0000       0.371057        10.0970 
 144   0.0000       0.376209        10.2372 
 145   0.0000       0.381564        10.3829 
 146   0.0000       0.386362        10.5134 
 147   0.0000       0.396088        10.7781 
 148   0.0000       0.401198        10.9172 
 149   0.0000       0.407481        11.0881 
 150   0.0000       0.408589        11.1183 
 151   0.0000       0.413483        11.2514 
 152   0.0000       0.419555        11.4167 
 153   0.0000       0.422104        11.4860 
 154   0.0000       0.425339        11.5741 
 155   0.0000       0.430791        11.7224 
 156   0.0000       0.434169        11.8143 
 157   0.0000       0.444992        12.1088 
 158   0.0000       0.448484        12.2039 
 159   0.0000       0.452592        12.3156 
 160   0.0000       0.457357        12.4453 
 161   0.0000       0.461535        12.5590 
 162   0.0000       0.465851        12.6764 
 163   0.0000       0.468825        12.7574 
 164   0.0000       0.471722        12.8362 
 165   0.0000       0.478354        13.0167 
 166   0.0000       0.486806        13.2467 
 167   0.0000       0.488711        13.2985 
 168   0.0000       0.489633        13.3236 
 169   0.0000       0.496742        13.5170 
 170   0.0000       0.498856        13.5746 
 171   0.0000       0.500590        13.6217 
 172   0.0000       0.504269        13.7219 
 173   0.0000       0.510273        13.8852 
 174   0.0000       0.516670        14.0593 
 175   0.0000       0.518494        14.1089 
 176   0.0000       0.525386        14.2965 
 177   0.0000       0.529427        14.4064 
 178   0.0000       0.534347        14.5403 
 179   0.0000       0.542027        14.7493 
 180   0.0000       0.545749        14.8506 
 181   0.0000       0.550971        14.9927 
 182   0.0000       0.555603        15.1187 
 183   0.0000       0.564003        15.3473 
 184   0.0000       0.566630        15.4188 
 185   0.0000       0.569854        15.5065 
 186   0.0000       0.575044        15.6477 
 187   0.0000       0.577371        15.7111 
 188   0.0000       0.581660        15.8278 
 189   0.0000       0.586934        15.9713 
 190   0.0000       0.588705        16.0195 
 191   0.0000       0.590790        16.0762 
 192   0.0000       0.596649        16.2356 
 193   0.0000       0.601983        16.3808 
 194   0.0000       0.609716        16.5912 
 195   0.0000       0.615037        16.7360 
 196   0.0000       0.619733        16.8638 
 197   0.0000       0.628627        17.1058 
 198   0.0000       0.634010        17.2523 
 199   0.0000       0.638055        17.3623 
 200   0.0000       0.640890        17.4395 
 201   0.0000       0.644829        17.5467 
 202   0.0000       0.648026        17.6337 
 203   0.0000       0.659065        17.9341 
 204   0.0000       0.667850        18.1731 
 205   0.0000       0.673712        18.3326 
 206   0.0000       0.683475        18.5983 
 207   0.0000       0.686983        18.6938 
 208   0.0000       0.690382        18.7863 
 209   0.0000       0.700232        19.0543 
 210   0.0000       0.715076        19.4582 
 211   0.0000       0.721869        19.6431 
 212   0.0000       0.723013        19.6742 
 213   0.0000       0.732026        19.9194 
 214   0.0000       0.738012        20.0823 
 215   0.0000       0.741280        20.1713 
 216   0.0000       0.749350        20.3908 
 217   0.0000       0.761488        20.7211 
 218   0.0000       0.767220        20.8771 
 219   0.0000       0.771210        20.9857 
 220   0.0000       0.779943        21.2233 
 221   0.0000       0.786751        21.4086 
 222   0.0000       0.789581        21.4856 
 223   0.0000       0.793545        21.5935 
 224   0.0000       0.797361        21.6973 
 225   0.0000       0.805106        21.9081 
 226   0.0000       0.807590        21.9757 
 227   0.0000       0.813029        22.1236 
 228   0.0000       0.819568        22.3016 
 229   0.0000       0.825691        22.4682 
 230   0.0000       0.835325        22.7303 
 231   0.0000       0.838938        22.8287 
 232   0.0000       0.851993        23.1839 
 233   0.0000       0.855162        23.2701 
 234   0.0000       0.862371        23.4663 
 235   0.0000       0.863033        23.4843 
 236   0.0000       0.866053        23.5665 
 237   0.0000       0.872200        23.7338 
 238   0.0000       0.874370        23.7928 
 239   0.0000       0.886979        24.1359 
 240   0.0000       0.894654        24.3448 
 241   0.0000       0.895913        24.3790 
 242   0.0000       0.900872        24.5140 
 243   0.0000       0.909019        24.7357 
 244   0.0000       0.911004        24.7897 
 245   0.0000       0.919400        25.0181 
 246   0.0000       0.926059        25.1993 
 247   0.0000       0.937663        25.5151 
 248   0.0000       0.949029        25.8244 
 249   0.0000       0.951254        25.8849 
 250   0.0000       0.961161        26.1545 
 251   0.0000       0.963759        26.2252 
 252   0.0000       0.969052        26.3692 
 253   0.0000       0.980967        26.6935 
 254   0.0000       0.985093        26.8058 
 255   0.0000       0.991117        26.9697 
 256   0.0000       1.003457        27.3055 
 257   0.0000       1.004208        27.3259 
 258   0.0000       1.013739        27.5852 
 259   0.0000       1.019686        27.7471 
 260   0.0000       1.021746        27.8031 
 261   0.0000       1.036728        28.2108 
 262   0.0000       1.037570        28.2337 
 263   0.0000       1.048827        28.5400 
 264   0.0000       1.058962        28.8158 
 265   0.0000       1.063069        28.9276 
 266   0.0000       1.067283        29.0423 
 267   0.0000       1.075076        29.2543 
 268   0.0000       1.076512        29.2934 
 269   0.0000       1.096126        29.8271 
 270   0.0000       1.097708        29.8701 
 271   0.0000       1.104184        30.0464 
 272   0.0000       1.111270        30.2392 
 273   0.0000       1.120847        30.4998 
 274   0.0000       1.134723        30.8774 
 275   0.0000       1.139408        31.0049 
 276   0.0000       1.145408        31.1681 
 277   0.0000       1.153913        31.3996 
 278   0.0000       1.169798        31.8318 
 279   0.0000       1.170645        31.8549 
 280   0.0000       1.181461        32.1492 
 281   0.0000       1.186030        32.2735 
 282   0.0000       1.193717        32.4827 
 283   0.0000       1.203432        32.7471 
 284   0.0000       1.222184        33.2573 
 285   0.0000       1.226669        33.3794 
 286   0.0000       1.245682        33.8967 
 287   0.0000       1.257761        34.2254 
 288   0.0000       1.269243        34.5379 
 289   0.0000       1.275252        34.7014 
 290   0.0000       1.290127        35.1061 
 291   0.0000       1.305196        35.5162 
 292   0.0000       1.314129        35.7593 
 293   0.0000       1.319614        35.9085 
 294   0.0000       1.324835        36.0506 
 295   0.0000       1.333213        36.2786 
 296   0.0000       1.336445        36.3665 
 297   0.0000       1.341455        36.5028 
 298   0.0000       1.349807        36.7301 
 299   0.0000       1.361248        37.0414 
 300   0.0000       1.375920        37.4407 
 301   0.0000       1.379362        37.5343 
 302   0.0000       1.390575        37.8395 
 303   0.0000       1.396074        37.9891 
 304   0.0000       1.399265        38.0759 
 305   0.0000       1.401513        38.1371 
 306   0.0000       1.416295        38.5393 
 307   0.0000       1.430969        38.9386 
 308   0.0000       1.433636        39.0112 
 309   0.0000       1.444532        39.3077 
 310   0.0000       1.458394        39.6849 
 311   0.0000       1.471560        40.0432 
 312   0.0000       1.485056        40.4104 
 313   0.0000       1.495661        40.6990 
 314   0.0000       1.505981        40.9798 
 315   0.0000       1.525030        41.4982 
 316   0.0000       1.543538        42.0018 
 317   0.0000       1.548833        42.1459 
 318   0.0000       1.555274        42.3212 
 319   0.0000       1.558457        42.4078 
 320   0.0000       1.565624        42.6028 
 321   0.0000       1.574721        42.8503 
 322   0.0000       1.583252        43.0825 
 323   0.0000       1.590633        43.2833 
 324   0.0000       1.594388        43.3855 
 325   0.0000       1.606560        43.7167 
 326   0.0000       1.610479        43.8234 
 327   0.0000       1.614795        43.9408 
 328   0.0000       1.618230        44.0343 
 329   0.0000       1.619149        44.0593 
 330   0.0000       1.624509        44.2051 
 331   0.0000       1.632204        44.4145 
 332   0.0000       1.637447        44.5572 
 333   0.0000       1.639110        44.6024 
 334   0.0000       1.641305        44.6622 
 335   0.0000       1.647494        44.8306 
 336   0.0000       1.653496        44.9939 
 337   0.0000       1.660285        45.1786 
 338   0.0000       1.663101        45.2553 
 339   0.0000       1.664194        45.2850 
 340   0.0000       1.669351        45.4254 
 341   0.0000       1.675937        45.6046 
 342   0.0000       1.679878        45.7118 
 343   0.0000       1.689490        45.9733 
 344   0.0000       1.692230        46.0479 
 345   0.0000       1.698437        46.2168 
 346   0.0000       1.705031        46.3962 
 347   0.0000       1.707678        46.4683 
 348   0.0000       1.713896        46.6375 
 349   0.0000       1.722217        46.8639 
 350   0.0000       1.728670        47.0395 
 351   0.0000       1.732092        47.1326 
 352   0.0000       1.735177        47.2166 
 353   0.0000       1.746530        47.5255 
 354   0.0000       1.757667        47.8285 
 355   0.0000       1.765843        48.0510 
 356   0.0000       1.772155        48.2228 
 357   0.0000       1.778440        48.3938 
 358   0.0000       1.786781        48.6208 
 359   0.0000       1.793650        48.8077 
 360   0.0000       1.798177        48.9309 
 361   0.0000       1.801952        49.0336 
 362   0.0000       1.805155        49.1208 
 363   0.0000       1.809837        49.2482 
 364   0.0000       1.823507        49.6201 
 365   0.0000       1.828206        49.7480 
 366   0.0000       1.832606        49.8677 
 367   0.0000       1.842660        50.1413 
 368   0.0000       1.852261        50.4026 
 369   0.0000       1.857374        50.5417 
 370   0.0000       1.883635        51.2563 
 371   0.0000       1.889019        51.4028 
 372   0.0000       1.901393        51.7395 
 373   0.0000       1.916447        52.1492 
 374   0.0000       1.918687        52.2101 
 375   0.0000       1.925810        52.4040 
 376   0.0000       1.930113        52.5210 
 377   0.0000       1.934449        52.6390 
 378   0.0000       1.938218        52.7416 
 379   0.0000       1.946856        52.9767 
 380   0.0000       1.952379        53.1269 
 381   0.0000       1.953191        53.1490 
 382   0.0000       1.960049        53.3356 
 383   0.0000       1.963470        53.4287 
 384   0.0000       1.970543        53.6212 
 385   0.0000       1.973306        53.6964 
 386   0.0000       1.980655        53.8964 
 387   0.0000       1.983922        53.9853 
 388   0.0000       1.988625        54.1132 
 389   0.0000       1.993099        54.2350 
 390   0.0000       2.005390        54.5694 
 391   0.0000       2.005684        54.5774 
 392   0.0000       2.028190        55.1898 
 393   0.0000       2.037793        55.4512 
 394   0.0000       2.049562        55.7714 
 395   0.0000       2.067250        56.2527 
 396   0.0000       2.071218        56.3607 
 397   0.0000       2.078780        56.5665 
 398   0.0000       2.083632        56.6985 
 399   0.0000       2.102697        57.2173 
 400   0.0000       2.113595        57.5138 
[...]
      px      :     0.000000
      py      :     0.000000
      dz2     :     0.000000  d :     0.000000
      dxz     :     0.000000
      dyz     :     0.000000
      dx2y2   :     0.000000
      dxy     :     0.000000
      f0      :     0.000000  f :     0.000000
      f+1     :     0.000000
      f-1     :     0.000000
      f+2     :     0.000000
      f-2     :     0.000000
      f+3     :     0.000000
      f-3     :     0.000000
  5 C s       :     0.000000  s :     0.000000
      pz      :     0.000000  p :     0.000000
      px      :     0.000000
      py      :     0.000000
      dz2     :     0.000000  d :     0.000000
      dxz     :     0.000000
      dyz     :     0.000000
      dx2y2   :     0.000000
      dxy     :     0.000000
      f0      :     0.000000  f :     0.000000
      f+1     :     0.000000
      f-1     :     0.000000
      f+2     :     0.000000
      f-2     :     0.000000
      f+3     :     0.000000
      f-3     :     0.000000
  6 C s       :     0.000000  s :     0.000000
      pz      :     0.000000  p :     0.000000
      px      :     0.000000
      py      :     0.000000
      dz2     :     0.000000  d :     0.000000
      dxz     :     0.000000
      dyz     :     0.000000
      dx2y2   :     0.000000
      dxy     :     0.000000
      f0      :     0.000000  f :     0.000000
      f+1     :     0.000000
      f-1     :     0.000000
      f+2     :     0.000000
      f-2     :     0.000000
      f+3     :     0.000000
      f-3     :     0.000000
  7 C s       :     0.000000  s :     0.000000
      pz      :     0.000000  p :     0.000000
      px      :     0.000000
      py      :     0.000000
      dz2     :     0.000000  d :     0.000000
      dxz     :     0.000000
      dyz     :     0.000000
      dx2y2   :     0.000000
      dxy     :     0.000000
      f0      :     0.000000  f :     0.000000
      f+1     :     0.000000
      f-1     :     0.000000
      f+2     :     0.000000
      f-2     :     0.000000
      f+3     :     0.000000
      f-3     :     0.000000
  8 C s       :     0.000000  s :     0.000000
      pz      :     0.000000  p :     0.000000
      px      :     0.000000
      py      :     0.000000
      dz2     :     0.000000  d :     0.000000
      dxz     :     0.000000
      dyz     :     0.000000
      dx2y2   :     0.000000
      dxy     :     0.000000
      f0      :     0.000000  f :     0.000000
      f+1     :     0.000000
      f-1     :     0.000000
      f+2     :     0.000000
      f-2     :     0.000000
      f+3     :     0.000000
      f-3     :     0.000000
  9 O s       :     0.000000  s :     0.000000
      pz      :     0.000000  p :     0.000000
      px      :     0.000000
      py      :     0.000000
      dz2     :     0.000000  d :     0.000000
      dxz     :     0.000000
      dyz     :     0.000000
      dx2y2   :     0.000000
      dxy     :     0.000000
      f0      :     0.000000  f :     0.000000
      f+1     :     0.000000
      f-1     :     0.000000
      f+2     :     0.000000
      f-2     :     0.000000
      f+3     :     0.000000
      f-3     :     0.000000
 10 O s       :     0.000000  s :     0.000000
      pz      :     0.000000  p :     0.000000
      px      :     0.000000
      py      :     0.000000
      dz2     :     0.000000  d :     0.000000
      dxz     :     0.000000
      dyz     :     0.000000
      dx2y2   :     0.000000
      dxy     :     0.000000
      f0      :     0.000000  f :     0.000000
      f+1     :     0.000000
      f-1     :     0.000000
      f+2     :     0.000000
      f-2     :     0.000000
      f+3     :     0.000000
      f-3     :     0.000000
 11 O s       :     0.000000  s :     0.000000
      pz      :     0.000000  p :     0.000000
      px      :     0.000000
      py      :     0.000000
      dz2     :     0.000000  d :     0.000000
      dxz     :     0.000000
      dyz     :     0.000000
      dx2y2   :     0.000000
      dxy     :     0.000000
      f0      :     0.000000  f :     0.000000
      f+1     :     0.000000
      f-1     :     0.000000
      f+2     :     0.000000
      f-2     :     0.000000
      f+3     :     0.000000
      f-3     :     0.000000
 12 C s       :     0.000000  s :     0.000000
      pz      :     0.000000  p :     0.000000
      px      :     0.000000
      py      :     0.000000
      dz2     :     0.000000  d :     0.000000
      dxz     :     0.000000
      dyz     :     0.000000
      dx2y2   :     0.000000
      dxy     :     0.000000
      f0      :     0.000000  f :     0.000000
      f+1     :     0.000000
      f-1     :     0.000000
      f+2     :     0.000000
      f-2     :     0.000000
      f+3     :     0.000000
      f-3     :     0.000000
 13 C s       :     0.000000  s :     0.000000
      pz      :     0.000000  p :     0.000000
      px      :     0.000000
      py      :     0.000000
      dz2     :     0.000000  d :     0.000000
      dxz     :     0.000000
      dyz     :     0.000000
      dx2y2   :     0.000000
      dxy     :     0.000000
      f0      :     0.000000  f :     0.000000
      f+1     :     0.000000
      f-1     :     0.000000
      f+2     :     0.000000
      f-2     :     0.000000
      f+3     :     0.000000
      f-3     :     0.000000
 14 O s       :     0.000000  s :     0.000000
      pz      :     0.000000  p :     0.000000
      px      :     0.000000
      py      :     0.000000
      dz2     :     0.000000  d :     0.000000
      dxz     :     0.000000
      dyz     :     0.000000
      dx2y2   :     0.000000
      dxy     :     0.000000
      f0      :     0.000000  f :     0.000000
      f+1     :     0.000000
      f-1     :     0.000000
      f+2     :     0.000000
      f-2     :     0.000000
      f+3     :     0.000000
      f-3     :     0.000000
 15 C s       :     0.000000  s :     0.000000
      pz      :     0.000000  p :     0.000000
      px      :     0.000000
      py      :     0.000000
      dz2     :     0.000000  d :     0.000000
      dxz     :     0.000000
      dyz     :     0.000000
      dx2y2   :     0.000000
      dxy     :     0.000000
      f0      :     0.000000  f :     0.000000
      f+1     :     0.000000
      f-1     :     0.000000
      f+2     :     0.000000
      f-2     :     0.000000
      f+3     :     0.000000
      f-3     :     0.000000
 16 C s       :     0.000000  s :     0.000000
      pz      :     0.000000  p :     0.000000
      px      :     0.000000
      py      :     0.000000
      dz2     :     0.000000  d :     0.000000
      dxz     :     0.000000
      dyz     :     0.000000
      dx2y2   :     0.000000
      dxy     :     0.000000
      f0      :     0.000000  f :     0.000000
      f+1     :     0.000000
      f-1     :     0.000000
      f+2     :     0.000000
      f-2     :     0.000000
      f+3     :     0.000000
      f-3     :     0.000000
 17 C s       :     0.000000  s :     0.000000
      pz      :     0.000000  p :     0.000000
      px      :     0.000000
      py      :     0.000000
      dz2     :     0.000000  d :     0.000000
      dxz     :     0.000000
      dyz     :     0.000000
      dx2y2   :     0.000000
      dxy     :     0.000000
      f0      :     0.000000  f :     0.000000
      f+1     :     0.000000
      f-1     :     0.000000
      f+2     :     0.000000
      f-2     :     0.000000
      f+3     :     0.000000
      f-3     :     0.000000
 18 C s       :     0.000000  s :     0.000000
      pz      :     0.000000  p :     0.000000
      px      :     0.000000
      py      :     0.000000
      dz2     :     0.000000  d :     0.000000
      dxz     :     0.000000
      dyz     :     0.000000
      dx2y2   :     0.000000
      dxy     :     0.000000
      f0      :     0.000000  f :     0.000000
      f+1     :     0.000000
      f-1     :     0.000000
      f+2     :     0.000000
      f-2     :     0.000000
      f+3     :     0.000000
      f-3     :     0.000000
 19 C s       :     0.000000  s :     0.000000
      pz      :     0.000000  p :     0.000000
      px      :     0.000000
      py      :     0.000000
      dz2     :     0.000000  d :     0.000000
      dxz     :     0.000000
      dyz     :     0.000000
      dx2y2   :     0.000000
      dxy     :     0.000000
      f0      :     0.000000  f :     0.000000
      f+1     :     0.000000
      f-1     :     0.000000
      f+2     :     0.000000
      f-2     :     0.000000
      f+3     :     0.000000
      f-3     :     0.000000
 20 S s       :     0.000000  s :     0.000000
      pz      :     0.000000  p :     0.000000
      px      :     0.000000
      py      :     0.000000
      dz2     :     0.000000  d :     0.000000
      dxz     :     0.000000
      dyz     :     0.000000
      dx2y2   :     0.000000
      dxy     :     0.000000
      f0      :     0.000000  f :     0.000000
      f+1     :     0.000000
      f-1     :     0.000000
      f+2     :     0.000000
      f-2     :     0.000000
      f+3     :     0.000000
      f-3     :     0.000000
 21 C s       :     0.000000  s :     0.000000
      pz      :     0.000000  p :     0.000000
      px      :     0.000000
      py      :     0.000000
      dz2     :     0.000000  d :     0.000000
      dxz     :     0.000000
      dyz     :     0.000000
      dx2y2   :     0.000000
      dxy     :     0.000000
      f0      :     0.000000  f :     0.000000
      f+1     :     0.000000
      f-1     :     0.000000
      f+2     :     0.000000
      f-2     :     0.000000
      f+3     :     0.000000
      f-3     :     0.000000
 22 H s       :     0.000000  s :     0.000000
      pz      :     0.000000  p :     0.000000
      px      :     0.000000
      py      :     0.000000
 23 H s       :     0.000000  s :     0.000000
      pz      :     0.000000  p :     0.000000
      px      :     0.000000
      py      :     0.000000
 24 H s       :     0.000000  s :     0.000000
      pz      :     0.000000  p :     0.000000
      px      :     0.000000
      py      :     0.000000
 25 H s       :     0.000000  s :     0.000000
      pz      :     0.000000  p :     0.000000
      px      :     0.000000
      py      :     0.000000
 26 H s       :     0.000000  s :     0.000000
      pz      :     0.000000  p :     0.000000
      px      :     0.000000
      py      :     0.000000
 27 H s       :     0.000000  s :     0.000000
      pz      :     0.000000  p :     0.000000
      px      :     0.000000
      py      :     0.000000
 28 H s       :     0.000000  s :     0.000000
      pz      :     0.000000  p :     0.000000
      px      :     0.000000
      py      :     0.000000
 29 H s       :     0.000000  s :     0.000000
      pz      :     0.000000  p :     0.000000
      px      :     0.000000
      py      :     0.000000
 30 H s       :     0.000000  s :     0.000000
      pz      :     0.000000  p :     0.000000
      px      :     0.000000
      py      :     0.000000
 31 H s       :     0.000000  s :     0.000000
      pz      :     0.000000  p :     0.000000
      px      :     0.000000
      py      :     0.000000
 32 H s       :     0.000000  s :     0.000000
      pz      :     0.000000  p :     0.000000
      px      :     0.000000
      py      :     0.000000
 33 H s       :     0.000000  s :     0.000000
      pz      :     0.000000  p :     0.000000
      px      :     0.000000
      py      :     0.000000
 34 H s       :     0.000000  s :     0.000000
      pz      :     0.000000  p :     0.000000
      px      :     0.000000
      py      :     0.000000
 35 H s       :     0.000000  s :     0.000000
      pz      :     0.000000  p :     0.000000
      px      :     0.000000
      py      :     0.000000


                      *****************************
                      * MAYER POPULATION ANALYSIS *
                      *****************************

  NA   - Mulliken gross atomic population
  ZA   - Total nuclear charge
  QA   - Mulliken gross atomic charge
  VA   - Mayer's total valence
  BVA  - Mayer's bonded valence
  FA   - Mayer's free valence

  ATOM       NA         ZA         QA         VA         BVA        FA
  0 C      6.4119     6.0000    -0.4119     3.9350     3.9350     0.0000
  1 S     16.0383    16.0000    -0.0383     2.3991     2.3991    -0.0000
  2 C      5.8773     6.0000     0.1227     3.8742     3.8742    -0.0000
  3 C      6.2311     6.0000    -0.2311     3.8478     3.8478     0.0000
  4 C      6.2383     6.0000    -0.2383     3.9664     3.9664    -0.0000
  5 C      5.8925     6.0000     0.1075     3.5478     3.5478    -0.0000
  6 C      6.2549     6.0000    -0.2549     4.0230     4.0230    -0.0000
  7 C      6.1874     6.0000    -0.1874     3.8491     3.8491    -0.0000
  8 C      5.6676     6.0000     0.3324     4.2896     4.2896     0.0000
  9 O      8.0963     8.0000    -0.0963     2.0038     2.0038     0.0000
 10 O      8.3527     8.0000    -0.3527     2.1738     2.1738    -0.0000
 11 O      8.1053     8.0000    -0.1053     2.0357     2.0357    -0.0000
 12 C      5.6564     6.0000     0.3436     4.2720     4.2720    -0.0000
 13 C      5.8965     6.0000     0.1035     3.4979     3.4979     0.0000
 14 O      8.3689     8.0000    -0.3689     2.1512     2.1512     0.0000
 15 C      6.2339     6.0000    -0.2339     3.9949     3.9949     0.0000
 16 C      6.1870     6.0000    -0.1870     3.8595     3.8595     0.0000
 17 C      5.8685     6.0000     0.1315     3.8750     3.8750     0.0000
 18 C      6.2382     6.0000    -0.2382     3.8664     3.8664     0.0000
 19 C      6.2387     6.0000    -0.2387     3.9788     3.9788    -0.0000
 20 S     16.0315    16.0000    -0.0315     2.4144     2.4144    -0.0000
 21 C      6.4122     6.0000    -0.4122     3.9351     3.9351    -0.0000
 22 H      0.8158     1.0000     0.1842     0.9592     0.9592     0.0000
 23 H      0.8326     1.0000     0.1674     0.9593     0.9593     0.0000
 24 H      0.8323     1.0000     0.1677     0.9568     0.9568     0.0000
 25 H      0.8162     1.0000     0.1838     0.9610     0.9610     0.0000
 26 H      0.8084     1.0000     0.1916     0.9706     0.9706    -0.0000
 27 H      0.8175     1.0000     0.1825     0.9642     0.9642    -0.0000
 28 H      0.8292     1.0000     0.1708     0.9685     0.9685     0.0000
 29 H      0.8240     1.0000     0.1760     0.9762     0.9762     0.0000
 30 H      0.8294     1.0000     0.1706     0.9696     0.9696    -0.0000
 31 H      0.8167     1.0000     0.1833     0.9610     0.9610     0.0000
 32 H      0.8146     1.0000     0.1854     0.9671     0.9671     0.0000
 33 H      0.8150     1.0000     0.1850     0.9589     0.9589     0.0000
 34 H      0.8314     1.0000     0.1686     0.9583     0.9583     0.0000
 35 H      0.8317     1.0000     0.1683     0.9574     0.9574     0.0000

  Mayer bond orders larger than 0.100000
B(  0-C ,  1-S ) :   1.0621 B(  0-C , 22-H ) :   0.9465 B(  0-C , 23-H ) :   0.9572 
B(  0-C , 24-H ) :   0.9558 B(  1-S ,  2-C ) :   1.2050 B(  2-C ,  3-C ) :   1.2947 
B(  2-C ,  7-C ) :   1.2931 B(  3-C ,  4-C ) :   1.4555 B(  3-C , 25-H ) :   0.9653 
B(  4-C ,  5-C ) :   1.3275 B(  4-C , 26-H ) :   0.9340 B(  5-C ,  6-C ) :   1.3359 
B(  5-C ,  8-C ) :   0.9443 B(  6-C ,  7-C ) :   1.4845 B(  6-C , 27-H ) :   0.9704 
B(  7-C , 28-H ) :   0.9732 B(  8-C ,  9-O ) :   1.1173 B(  8-C , 10-O ) :   2.1214 
B(  9-O , 11-O ) :   0.8268 B( 11-O , 12-C ) :   1.1205 B( 12-C , 13-C ) :   0.9776 
B( 12-C , 14-O ) :   2.0527 B( 13-C , 15-C ) :   1.3011 B( 13-C , 19-C ) :   1.3290 
B( 15-C , 16-C ) :   1.5071 B( 15-C , 29-H ) :   0.9673 B( 16-C , 17-C ) :   1.2752 
B( 16-C , 30-H ) :   0.9747 B( 17-C , 18-C ) :   1.3013 B( 17-C , 20-S ) :   1.2170 
B( 18-C , 19-C ) :   1.4570 B( 18-C , 31-H ) :   0.9620 B( 19-C , 32-H ) :   0.9606 
B( 20-S , 21-C ) :   1.0621 B( 21-C , 33-H ) :   0.9460 B( 21-C , 34-H ) :   0.9568 
B( 21-C , 35-H ) :   0.9562 

-------
TIMINGS
-------

Total SCF time: 0 days 0 hours 4 min 50 sec 

Total time                  ....     290.472 sec
Sum of individual times     ....     283.621 sec  ( 97.6%)

Fock matrix formation       ....     273.918 sec  ( 94.3%)
  Split-RI-J                ....      11.889 sec  (  4.3% of F)
  Chain of spheres X        ....     185.594 sec  ( 67.8% of F)
  XC integration            ....      61.337 sec  ( 22.4% of F)
    Basis function eval.    ....       4.128 sec  (  6.7% of XC)
    Density eval.           ....       9.487 sec  ( 15.5% of XC)
    XC-Functional eval.     ....      40.129 sec  ( 65.4% of XC)
    XC-Potential eval.      ....       4.434 sec  (  7.2% of XC)
Diagonalization             ....       3.322 sec  (  1.1%)
Density matrix formation    ....       0.139 sec  (  0.0%)
Population analysis         ....       0.358 sec  (  0.1%)
Initial guess               ....       0.482 sec  (  0.2%)
Orbital Transformation      ....       0.000 sec  (  0.0%)
Orbital Orthonormalization  ....       0.427 sec  (  0.1%)
DIIS solution               ....       2.291 sec  (  0.8%)
Grid generation             ....       3.110 sec  (  1.1%)

Maximum memory used throughout the entire SCF-calculation: 185.7 MB

-------------------------   --------------------
FINAL SINGLE POINT ENERGY     -1715.356180519844
-------------------------   --------------------

                                *** OPTIMIZATION RUN DONE ***

                            ***************************************
                            *     ORCA property calculations      *
                            ***************************************

                                    ---------------------
                                    Active property flags
                                    ---------------------
   (+) Dipole Moment


------------------------------------------------------------------------------
                       ORCA ELECTRIC PROPERTIES CALCULATION
------------------------------------------------------------------------------

Dipole Moment Calculation                       ... on
Quadrupole Moment Calculation                   ... off
Polarizability Calculation                      ... off
GBWName                                         ... /burg/berkelbach/users/eav2136/projects/peroxide_dissociation/05_range_separated_functional/wb97x-v-peroxide-nmf/wb97x-v-peroxide-nmf_opt.gbw
Electron density                                ... /burg/berkelbach/users/eav2136/projects/peroxide_dissociation/05_range_separated_functional/wb97x-v-peroxide-nmf/wb97x-v-peroxide-nmf_opt.scfp
The origin for moment calculation is the CENTER OF MASS  = (-0.247593,  3.453927  5.637978)

-------------
DIPOLE MOMENT
-------------
                                X             Y             Z
Electronic contribution:     -0.76648      -8.82514     -13.64342
Nuclear contribution   :      1.38726      10.57625      17.53095
                        -----------------------------------------
Total Dipole Moment    :      0.62077       1.75110       3.88753
                        -----------------------------------------
Magnitude (a.u.)       :      4.30866
Magnitude (Debye)      :     10.95176



--------------------
Rotational spectrum 
--------------------
 
Rotational constants in cm-1:     0.008889     0.005432     0.003685 
Rotational constants in MHz :   266.493685   162.840274   110.463979 

 Dipole components along the rotational axes: 
x,y,z [a.u.] :     2.549744     3.449406    -0.406199 
x,y,z [Debye]:     6.480933     8.767694    -1.032476 

 

Timings for individual modules:

Sum of individual times         ...     6568.923 sec (= 109.482 min)
GTO integral calculation        ...       86.864 sec (=   1.448 min)   1.3 %
SCF iterations                  ...     5112.237 sec (=  85.204 min)  77.8 %
SCF Gradient evaluation         ...     1259.722 sec (=  20.995 min)  19.2 %
Geometry relaxation             ...      110.100 sec (=   1.835 min)   1.7 %
                             ****ORCA TERMINATED NORMALLY****
TOTAL RUN TIME: 0 days 1 hours 51 minutes 10 seconds 190 msec
