Job execution start: Fri Apr 22 10:30:58 EDT 2022
Shared library path: /cm/shared/apps/cuda11.0/toolkit/11.0.3/compat:/burg/berkelbach/users/eav2136/builds/orca/5.0.3/orca:/cm/shared/apps/ucx/1.8.1/lib64:/cm/local/apps/cuda/libs/current/lib64:/cm/shared/apps/cuda11.0/toolkit/11.0.3/targets/x86_64-linux/lib:/cm/shared/apps/cuda11.0/visual-tools/11.0.3/libnvvp:/burg/opt/openmpi-4.1.1_ucx_cuda_11.0.3_support/lib:/cm/shared/apps/slurm/current/lib64/slurm:/cm/shared/apps/slurm/current/lib64
Slurm Job ID is: 1844341
Slurm Job name is: nmf_radical_opt
g066

                                 *****************
                                 * O   R   C   A *
                                 *****************

                                            #,                                       
                                            ###                                      
                                            ####                                     
                                            #####                                    
                                            ######                                   
                                           ########,                                 
                                     ,,################,,,,,                         
                               ,,#################################,,                 
                          ,,##########################################,,             
                       ,#########################################, ''#####,          
                    ,#############################################,,   '####,        
                  ,##################################################,,,,####,       
                ,###########''''           ''''###############################       
              ,#####''   ,,,,##########,,,,          '''####'''          '####       
            ,##' ,,,,###########################,,,                        '##       
           ' ,,###''''                  '''############,,,                           
         ,,##''                                '''############,,,,        ,,,,,,###''
      ,#''                                            '''#######################'''  
     '                                                          ''''####''''         
             ,#######,   #######,   ,#######,      ##                                
            ,#'     '#,  ##    ##  ,#'     '#,    #''#        ######   ,####,        
            ##       ##  ##   ,#'  ##            #'  '#       #        #'  '#        
            ##       ##  #######   ##           ,######,      #####,   #    #        
            '#,     ,#'  ##    ##  '#,     ,#' ,#      #,         ##   #,  ,#        
             '#######'   ##     ##  '#######'  #'      '#     #####' # '####'        



                  #######################################################
                  #                        -***-                        #
                  #          Department of theory and spectroscopy      #
                  #    Directorship and core code : Frank Neese         #
                  #        Max Planck Institute fuer Kohlenforschung    #
                  #                Kaiser Wilhelm Platz 1               #
                  #                 D-45470 Muelheim/Ruhr               #
                  #                      Germany                        #
                  #                                                     #
                  #                  All rights reserved                #
                  #                        -***-                        #
                  #######################################################


                         Program Version 5.0.3 -  RELEASE  -


 With contributions from (in alphabetic order):
   Daniel Aravena         : Magnetic Suceptibility
   Michael Atanasov       : Ab Initio Ligand Field Theory (pilot matlab implementation)
   Alexander A. Auer      : GIAO ZORA, VPT2 properties, NMR spectrum
   Ute Becker             : Parallelization
   Giovanni Bistoni       : ED, misc. LED, open-shell LED, HFLD
   Martin Brehm           : Molecular dynamics
   Dmytro Bykov           : SCF Hessian
   Vijay G. Chilkuri      : MRCI spin determinant printing, contributions to CSF-ICE
   Dipayan Datta          : RHF DLPNO-CCSD density
   Achintya Kumar Dutta   : EOM-CC, STEOM-CC
   Dmitry Ganyushin       : Spin-Orbit,Spin-Spin,Magnetic field MRCI
   Miquel Garcia          : C-PCM and meta-GGA Hessian, CC/C-PCM, Gaussian charge scheme
   Yang Guo               : DLPNO-NEVPT2, F12-NEVPT2, CIM, IAO-localization
   Andreas Hansen         : Spin unrestricted coupled pair/coupled cluster methods
   Benjamin Helmich-Paris : MC-RPA, TRAH-SCF, COSX integrals
   Lee Huntington         : MR-EOM, pCC
   Robert Izsak           : Overlap fitted RIJCOSX, COSX-SCS-MP3, EOM
   Marcus Kettner         : VPT2
   Christian Kollmar      : KDIIS, OOCD, Brueckner-CCSD(T), CCSD density, CASPT2, CASPT2-K
   Simone Kossmann        : Meta GGA functionals, TD-DFT gradient, OOMP2, MP2 Hessian
   Martin Krupicka        : Initial AUTO-CI
   Lucas Lang             : DCDCAS
   Marvin Lechner         : AUTO-CI (C++ implementation), FIC-MRCC
   Dagmar Lenk            : GEPOL surface, SMD
   Dimitrios Liakos       : Extrapolation schemes; Compound Job, initial MDCI parallelization
   Dimitrios Manganas     : Further ROCIS development; embedding schemes
   Dimitrios Pantazis     : SARC Basis sets
   Anastasios Papadopoulos: AUTO-CI, single reference methods and gradients
   Taras Petrenko         : DFT Hessian,TD-DFT gradient, ASA, ECA, R-Raman, ABS, FL, XAS/XES, NRVS
   Peter Pinski           : DLPNO-MP2, DLPNO-MP2 Gradient
   Christoph Reimann      : Effective Core Potentials
   Marius Retegan         : Local ZFS, SOC
   Christoph Riplinger    : Optimizer, TS searches, QM/MM, DLPNO-CCSD(T), (RO)-DLPNO pert. Triples
   Tobias Risthaus        : Range-separated hybrids, TD-DFT gradient, RPA, STAB
   Michael Roemelt        : Original ROCIS implementation
   Masaaki Saitow         : Open-shell DLPNO-CCSD energy and density
   Barbara Sandhoefer     : DKH picture change effects
   Avijit Sen             : IP-ROCIS
   Kantharuban Sivalingam : CASSCF convergence, NEVPT2, FIC-MRCI
   Bernardo de Souza      : ESD, SOC TD-DFT
   Georgi Stoychev        : AutoAux, RI-MP2 NMR, DLPNO-MP2 response
   Willem Van den Heuvel  : Paramagnetic NMR
   Boris Wezisla          : Elementary symmetry handling
   Frank Wennmohs         : Technical directorship


 We gratefully acknowledge several colleagues who have allowed us to
 interface, adapt or use parts of their codes:
   Stefan Grimme, W. Hujo, H. Kruse, P. Pracht,  : VdW corrections, initial TS optimization,
                  C. Bannwarth, S. Ehlert          DFT functionals, gCP, sTDA/sTD-DF
   Ed Valeev, F. Pavosevic, A. Kumar             : LibInt (2-el integral package), F12 methods
   Garnet Chan, S. Sharma, J. Yang, R. Olivares  : DMRG
   Ulf Ekstrom                                   : XCFun DFT Library
   Mihaly Kallay                                 : mrcc  (arbitrary order and MRCC methods)
   Jiri Pittner, Ondrej Demel                    : Mk-CCSD
   Frank Weinhold                                : gennbo (NPA and NBO analysis)
   Christopher J. Cramer and Donald G. Truhlar   : smd solvation model
   Lars Goerigk                                  : TD-DFT with DH, B97 family of functionals
   V. Asgeirsson, H. Jonsson                     : NEB implementation
   FAccTs GmbH                                   : IRC, NEB, NEB-TS, DLPNO-Multilevel, CI-OPT
                                                   MM, QMMM, 2- and 3-layer-ONIOM, Crystal-QMMM,
                                                   LR-CPCM, SF, NACMEs, symmetry and pop. for TD-DFT,
                                                   nearIR, NL-DFT gradient (VV10), updates on ESD,
                                                   ML-optimized integration grids
   S Lehtola, MJT Oliveira, MAL Marques          : LibXC Library
   Liviu Ungur et al                             : ANISO software


 Your calculation uses the libint2 library for the computation of 2-el integrals
 For citations please refer to: http://libint.valeyev.net

 Your ORCA version has been built with support for libXC version: 5.1.0
 For citations please refer to: https://tddft.org/programs/libxc/

 This ORCA versions uses:
   CBLAS   interface :  Fast vector & matrix operations
   LAPACKE interface :  Fast linear algebra routines
   SCALAPACK package :  Parallel linear algebra routines
   Shared memory     :  Shared parallel matrices
   BLAS/LAPACK       :  OpenBLAS 0.3.15  USE64BITINT DYNAMIC_ARCH NO_AFFINITY SkylakeX SINGLE_THREADED
        Core in use  :  SkylakeX
   Copyright (c) 2011-2014, The OpenBLAS Project


Your calculation utilizes the atom-pairwise dispersion correction
with the Becke-Johnson damping scheme (D3BJ)
Cite in your paper:
S.Grimme, S.Ehrlich, L.Goerigk, J Comput Chem, (2011), 32, 1456–1465 
S.Grimme, J.Antony, S.Ehrlich and H.Krieg, J.Chem.Phys., 132, (2010), 154104 
   

Your calculation utilizes the SMD solvation module
Please cite in your paper:
A.V. Marenich, C.J. Cramer, D.G. Truhlar J. Phys. Chem. B, 113, (2009), 6378 

================================================================================

----- Orbital basis set information -----
Your calculation utilizes the basis: def2-TZVP
   F. Weigend and R. Ahlrichs, Phys. Chem. Chem. Phys. 7, 3297 (2005).

----- AuxJ basis set information -----
Your calculation utilizes the auxiliary basis: def2/J
   F. Weigend, Phys. Chem. Chem. Phys. 8, 1057 (2006).

================================================================================
                                        WARNINGS
                       Please study these warnings very carefully!
================================================================================


WARNING: Geometry Optimization
  ===> : Switching off AutoStart
         For restart on a previous wavefunction, please use MOREAD

INFO   : the flag for use of the SHARK integral package has been found!

================================================================================
                                       INPUT FILE
================================================================================
NAME = /burg/berkelbach/users/eav2136/projects/peroxide_dissociation/04_solvated_radical/nmf/nmf_radical_opt.inp
|  1> ! UKS PBE0 def2-TZVP def2/J RIJCOSX D3BJ TIGHTSCF Opt CPCM PAL8
|  2> %maxcore 5000
|  3> %cpcm
|  4> smd true
|  5> SMDsolvent "N-METHYLFORMAMIDE"
|  6> end
|  7> * xyz 0 2
|  8>  C -0.07425707479814 6.45007760366319 3.54636897867849
|  9>  S 1.48979584793712 6.08048225687873 2.75598260255209
| 10>  C 1.14936654141856 4.63662227087222 1.83369205968326
| 11>  C -0.09136557109480 4.00305286554088 1.79338352444578
| 12>  C -0.25826928718407 2.84269542505768 1.05936282240646
| 13>  C 0.80050967676942 2.30271389692801 0.33923873907232
| 14>  C 2.02875697338567 2.96040825022008 0.34201900047512
| 15>  C 2.20764771123846 4.10330343094754 1.09121055149825
| 16>  C 0.66254428710301 1.09941809961861 -0.50690159852297
| 17>  O 0.00000000000000 0.00000000000000 0.00000000000000
| 18>  O 1.06713866538631 0.98717129960580 -1.62357736506780
| 19>  H 0.10416325535368 7.34607684664392 4.14087383255362
| 20>  H -0.38882275224257 5.64387294862163 4.21002028523424
| 21>  H -0.85323854703301 6.66443357654391 2.81385647784552
| 22>  H -0.93700004363157 4.40513362395569 2.33421606140266
| 23>  H -1.23507439683237 2.37497021944690 1.02749021968162
| 24>  H 2.84544686618639 2.55882587909200 -0.24576673820719
| 25>  H 3.17295340310622 4.59670965109571 1.10248346369500
| 26> *
| 27> 
| 28>                          ****END OF INPUT****
================================================================================

                       *****************************
                       * Geometry Optimization Run *
                       *****************************

Geometry optimization settings:
Update method            Update   .... BFGS
Choice of coordinates    CoordSys .... Z-matrix Internals
Initial Hessian          InHess   .... Almoef's Model

Convergence Tolerances:
Energy Change            TolE     ....  5.0000e-06 Eh
Max. Gradient            TolMAXG  ....  3.0000e-04 Eh/bohr
RMS Gradient             TolRMSG  ....  1.0000e-04 Eh/bohr
Max. Displacement        TolMAXD  ....  4.0000e-03 bohr
RMS Displacement         TolRMSD  ....  2.0000e-03 bohr
Strict Convergence                ....  False
------------------------------------------------------------------------------
                        ORCA OPTIMIZATION COORDINATE SETUP
------------------------------------------------------------------------------

The optimization will be done in new redundant internal coordinates
Making redundant internal coordinates   ...  (new redundants) done
Evaluating the initial hessian          ...  (Almloef) done
Evaluating the coordinates              ...  done
Calculating the B-matrix                .... done
Calculating the G-matrix                .... done
Diagonalizing the G-matrix              .... done
Small eigenvalue found = 1.379e-02
The first mode is                       ....   31
The number of degrees of freedom        ....   48

    -----------------------------------------------------------------
                    Redundant Internal Coordinates


    -----------------------------------------------------------------
         Definition                    Initial Value    Approx d2E/dq
    -----------------------------------------------------------------
      1. B(S   1,C   0)                  1.7910         0.386175   
      2. B(C   2,S   1)                  1.7468         0.454240   
      3. B(C   3,C   2)                  1.3937         0.616320   
      4. B(C   4,C   3)                  1.3831         0.640745   
      5. B(C   5,C   4)                  1.3897         0.625563   
      6. B(C   6,C   5)                  1.3933         0.617369   
      7. B(C   7,C   2)                  1.3985         0.605696   
      8. B(C   7,C   6)                  1.3782         0.652421   
      9. B(C   8,C   5)                  1.4775         0.453096   
     10. B(O   9,C   8)                  1.3801         0.580356   
     11. B(O  10,C   8)                  1.1930         1.153901   
     12. B(H  11,C   0)                  1.0900         0.360109   
     13. B(H  12,C   0)                  1.0906         0.359342   
     14. B(H  13,C   0)                  1.0906         0.359351   
     15. B(H  14,C   3)                  1.0813         0.371759   
     16. B(H  15,C   4)                  1.0835         0.368828   
     17. B(H  16,C   6)                  1.0834         0.368946   
     18. B(H  17,C   7)                  1.0842         0.367916   
     19. A(S   1,C   0,H  13)          111.5879         0.342618   
     20. A(S   1,C   0,H  12)          111.5859         0.342616   
     21. A(H  12,C   0,H  13)          110.3658         0.290648   
     22. A(H  11,C   0,H  12)          108.8436         0.290744   
     23. A(S   1,C   0,H  11)          105.5091         0.342738   
     24. A(H  11,C   0,H  13)          108.7656         0.290746   
     25. A(C   0,S   1,C   2)          103.4970         0.419917   
     26. A(S   1,C   2,C   7)          116.6202         0.431369   
     27. A(C   3,C   2,C   7)          119.0102         0.431786   
     28. A(S   1,C   2,C   3)          124.3692         0.432719   
     29. A(C   2,C   3,C   4)          120.2744         0.436178   
     30. A(C   4,C   3,H  14)          118.8821         0.356807   
     31. A(C   2,C   3,H  14)          120.8433         0.354461   
     32. A(C   5,C   4,H  15)          120.2581         0.354880   
     33. A(C   3,C   4,H  15)          119.1145         0.356327   
     34. A(C   3,C   4,C   5)          120.6005         0.437350   
     35. A(C   6,C   5,C   8)          117.8994         0.410112   
     36. A(C   4,C   5,C   8)          122.8259         0.411072   
     37. A(C   4,C   5,C   6)          119.1567         0.434432   
     38. A(C   7,C   6,H  16)          120.2952         0.357442   
     39. A(C   5,C   6,H  16)          119.2412         0.354107   
     40. A(C   5,C   6,C   7)          120.4618         0.437734   
     41. A(C   6,C   7,H  17)          119.9087         0.357272   
     42. A(C   2,C   7,H  17)          119.6508         0.352797   
     43. A(C   2,C   7,C   6)          120.4398         0.436231   
     44. A(O   9,C   8,O  10)          115.5727         0.473849   
     45. A(C   5,C   8,O  10)          125.5219         0.455899   
     46. A(C   5,C   8,O   9)          118.8999         0.403044   
     47. D(C   2,S   1,C   0,H  12)     61.4721         0.003898   
     48. D(C   2,S   1,C   0,H  11)    179.5234         0.003898   
     49. D(C   2,S   1,C   0,H  13)    -62.5176         0.003898   
     50. D(C   7,C   2,S   1,C   0)    179.8441         0.004531   
     51. D(C   3,C   2,S   1,C   0)      0.0768         0.004531   
     52. D(C   4,C   3,C   2,S   1)   -178.3900         0.026266   
     53. D(H  14,C   3,C   2,C   7)   -178.3097         0.026266   
     54. D(H  14,C   3,C   2,S   1)      1.4524         0.026266   
     55. D(C   4,C   3,C   2,C   7)      1.8479         0.026266   
     56. D(H  15,C   4,C   3,H  14)      1.1825         0.028529   
     57. D(H  15,C   4,C   3,C   2)   -178.9720         0.028529   
     58. D(C   5,C   4,C   3,H  14)    179.3028         0.028529   
     59. D(C   5,C   4,C   3,C   2)     -0.8517         0.028529   
     60. D(C   6,C   5,C   4,H  15)    176.7603         0.027109   
     61. D(C   6,C   5,C   4,C   3)     -1.3385         0.027109   
     62. D(C   8,C   5,C   4,H  15)      0.7946         0.027109   
     63. D(C   8,C   5,C   4,C   3)   -177.3042         0.027109   
     64. D(H  16,C   6,C   5,C   8)     -1.7852         0.026361   
     65. D(H  16,C   6,C   5,C   4)   -177.9495         0.026361   
     66. D(C   7,C   6,C   5,C   8)    178.6982         0.026361   
     67. D(C   7,C   6,C   5,C   4)      2.5338         0.026361   
     68. D(H  17,C   7,C   6,H  16)     -0.7379         0.029652   
     69. D(H  17,C   7,C   6,C   5)    178.7736         0.029652   
     70. D(C   2,C   7,C   6,H  16)    178.9472         0.029652   
     71. D(C   2,C   7,C   6,C   5)     -1.5413         0.029652   
     72. D(H  17,C   7,C   2,C   3)    179.0287         0.025317   
     73. D(H  17,C   7,C   2,S   1)     -0.7516         0.025317   
     74. D(C   6,C   7,C   2,C   3)     -0.6572         0.025317   
     75. D(C   6,C   7,C   2,S   1)    179.5625         0.025317   
     76. D(O   9,C   8,C   5,C   6)    137.7156         0.013991   
     77. D(O   9,C   8,C   5,C   4)    -46.2708         0.013991   
     78. D(O  10,C   8,C   5,C   6)    -43.1749         0.013991   
     79. D(O  10,C   8,C   5,C   4)    132.8388         0.013991   
    -----------------------------------------------------------------

Number of atoms                         .... 18
Number of degrees of freedom            .... 79

         *************************************************************
         *                GEOMETRY OPTIMIZATION CYCLE   1            *
         *************************************************************
---------------------------------
CARTESIAN COORDINATES (ANGSTROEM)
---------------------------------
  C     -0.074257    6.450078    3.546369
  S      1.489796    6.080482    2.755983
  C      1.149367    4.636622    1.833692
  C     -0.091366    4.003053    1.793384
  C     -0.258269    2.842695    1.059363
  C      0.800510    2.302714    0.339239
  C      2.028757    2.960408    0.342019
  C      2.207648    4.103303    1.091211
  C      0.662544    1.099418   -0.506902
  O      0.000000    0.000000    0.000000
  O      1.067139    0.987171   -1.623577
  H      0.104163    7.346077    4.140874
  H     -0.388823    5.643873    4.210020
  H     -0.853239    6.664434    2.813856
  H     -0.937000    4.405134    2.334216
  H     -1.235074    2.374970    1.027490
  H      2.845447    2.558826   -0.245767
  H      3.172953    4.596710    1.102483

----------------------------
CARTESIAN COORDINATES (A.U.)
----------------------------
  NO LB      ZA    FRAG     MASS         X           Y           Z
   0 C     6.0000    0    12.011   -0.140326   12.188880    6.701666
   1 S    16.0000    0    32.060    2.815306   11.490446    5.208052
   2 C     6.0000    0    12.011    2.171988    8.761946    3.465176
   3 C     6.0000    0    12.011   -0.172656    7.564674    3.389004
   4 C     6.0000    0    12.011   -0.488058    5.371916    2.001906
   5 C     6.0000    0    12.011    1.512744    4.351499    0.641068
   6 C     6.0000    0    12.011    3.833795    5.594361    0.646322
   7 C     6.0000    0    12.011    4.171850    7.754120    2.062089
   8 C     6.0000    0    12.011    1.252027    2.077599   -0.957905
   9 O     8.0000    0    15.999    0.000000    0.000000    0.000000
  10 O     8.0000    0    15.999    2.016600    1.865483   -3.068117
  11 H     1.0000    0     1.008    0.196840   13.882073    7.825117
  12 H     1.0000    0     1.008   -0.734769   10.665374    7.955785
  13 H     1.0000    0     1.008   -1.612387   12.593954    5.317418
  14 H     1.0000    0     1.008   -1.770673    8.324496    4.411029
  15 H     1.0000    0     1.008   -2.333952    4.488043    1.941675
  16 H     1.0000    0     1.008    5.377115    4.835480   -0.464432
  17 H     1.0000    0     1.008    5.996013    8.686522    2.083392

--------------------------------
INTERNAL COORDINATES (ANGSTROEM)
--------------------------------
 C      0   0   0     0.000000000000     0.00000000     0.00000000
 S      1   0   0     1.790969818017     0.00000000     0.00000000
 C      2   1   0     1.746780929995   103.49703222     0.00000000
 C      3   2   1     1.393718459520   124.36918170     0.07682297
 C      4   3   2     1.383138688329   120.27439762   181.60997218
 C      5   4   3     1.389666017657   120.60050203   359.14829865
 C      6   5   4     1.393255545064   119.15672375   358.66151732
 C      7   6   5     1.378223229504   120.46180539     2.53383799
 C      6   5   4     1.477466986255   122.82593719   182.69580816
 O      9   6   5     1.380084896203   118.89987975   313.72924568
 O      9   6   5     1.193004913083   125.52191253   132.83876530
 H      1   2   3     1.089992880213   105.50910599   179.52342869
 H      1   2   3     1.090573504139   111.58592171    61.47211732
 H      1   2   3     1.090566449636   111.58785041   297.48242808
 H      4   3   2     1.081326236832   120.84329981     1.45240478
 H      5   4   3     1.083480942612   119.11451180   181.02803207
 H      7   6   5     1.083394137146   119.24119758   182.05045369
 H      8   7   6     1.084154903776   119.90872766   178.77361985

---------------------------
INTERNAL COORDINATES (A.U.)
---------------------------
 C      0   0   0     0.000000000000     0.00000000     0.00000000
 S      1   0   0     3.384442470171     0.00000000     0.00000000
 C      2   1   0     3.300937573646   103.49703222     0.00000000
 C      3   2   1     2.633746196283   124.36918170     0.07682297
 C      4   3   2     2.613753326172   120.27439762   181.60997218
 C      5   4   3     2.626088190988   120.60050203   359.14829865
 C      6   5   4     2.632871414738   119.15672375   358.66151732
 C      7   6   5     2.604464455171   120.46180539     2.53383799
 C      6   5   4     2.792007975932   122.82593719   182.69580816
 O      9   6   5     2.607982495384   118.89987975   313.72924568
 O      9   6   5     2.254452562149   125.52191253   132.83876530
 H      1   2   3     2.059788031526   105.50910599   179.52342869
 H      1   2   3     2.060885251733   111.58592171    61.47211732
 H      1   2   3     2.060871920655   111.58785041   297.48242808
 H      4   3   2     2.043410449036   120.84329981     1.45240478
 H      5   4   3     2.047482252859   119.11451180   181.02803207
 H      7   6   5     2.047318214302   119.24119758   182.05045369
 H      8   7   6     2.048755854885   119.90872766   178.77361985

---------------------
BASIS SET INFORMATION
---------------------
There are 4 groups of distinct atoms

 Group   1 Type C   : 11s6p2d1f contracted to 5s3p2d1f pattern {62111/411/11/1}
 Group   2 Type S   : 14s9p3d1f contracted to 5s5p2d1f pattern {73211/51111/21/1}
 Group   3 Type O   : 11s6p2d1f contracted to 5s3p2d1f pattern {62111/411/11/1}
 Group   4 Type H   : 5s1p contracted to 3s1p pattern {311/1}

Atom   0C    basis set group =>   1
Atom   1S    basis set group =>   2
Atom   2C    basis set group =>   1
Atom   3C    basis set group =>   1
Atom   4C    basis set group =>   1
Atom   5C    basis set group =>   1
Atom   6C    basis set group =>   1
Atom   7C    basis set group =>   1
Atom   8C    basis set group =>   1
Atom   9O    basis set group =>   3
Atom  10O    basis set group =>   3
Atom  11H    basis set group =>   4
Atom  12H    basis set group =>   4
Atom  13H    basis set group =>   4
Atom  14H    basis set group =>   4
Atom  15H    basis set group =>   4
Atom  16H    basis set group =>   4
Atom  17H    basis set group =>   4
---------------------------------
AUXILIARY/J BASIS SET INFORMATION
---------------------------------
There are 4 groups of distinct atoms

 Group   1 Type C   : 12s5p4d2f1g contracted to 6s4p3d1f1g pattern {711111/2111/211/2/1}
 Group   2 Type S   : 14s5p5d2f1g contracted to 8s4p3d1f1g pattern {71111111/2111/311/2/1}
 Group   3 Type O   : 12s5p4d2f1g contracted to 6s4p3d1f1g pattern {711111/2111/211/2/1}
 Group   4 Type H   : 5s2p1d contracted to 3s1p1d pattern {311/2/1}

Atom   0C    basis set group =>   1
Atom   1S    basis set group =>   2
Atom   2C    basis set group =>   1
Atom   3C    basis set group =>   1
Atom   4C    basis set group =>   1
Atom   5C    basis set group =>   1
Atom   6C    basis set group =>   1
Atom   7C    basis set group =>   1
Atom   8C    basis set group =>   1
Atom   9O    basis set group =>   3
Atom  10O    basis set group =>   3
Atom  11H    basis set group =>   4
Atom  12H    basis set group =>   4
Atom  13H    basis set group =>   4
Atom  14H    basis set group =>   4
Atom  15H    basis set group =>   4
Atom  16H    basis set group =>   4
Atom  17H    basis set group =>   4


           ************************************************************
           *        Program running with 8 parallel MPI-processes     *
           *              working on a common directory               *
           ************************************************************
------------------------------------------------------------------------------
                           ORCA GTO INTEGRAL CALCULATION
                           -- RI-GTO INTEGRALS CHOSEN --
------------------------------------------------------------------------------
------------------------------------------------------------------------------
                   ___                                                        
                  /   \      - P O W E R E D   B Y -                         
                 /     \                                                     
                 |  |  |   _    _      __       _____    __    __             
                 |  |  |  | |  | |    /  \     |  _  \  |  |  /  |          
                  \  \/   | |  | |   /    \    | | | |  |  | /  /          
                 / \  \   | |__| |  /  /\  \   | |_| |  |  |/  /          
                |  |  |   |  __  | /  /__\  \  |    /   |      \           
                |  |  |   | |  | | |   __   |  |    \   |  |\   \          
                \     /   | |  | | |  |  |  |  | |\  \  |  | \   \       
                 \___/    |_|  |_| |__|  |__|  |_| \__\ |__|  \__/        
                                                                              
                      - O R C A' S   B I G   F R I E N D -                    
                                      &                                       
                       - I N T E G R A L  F E E D E R -                       
                                                                              
 v1 FN, 2020, v2 2021                                                         
------------------------------------------------------------------------------


Reading SHARK input file /burg/berkelbach/users/eav2136/projects/peroxide_dissociation/04_solvated_radical/nmf/nmf_radical_opt.SHARKINP.tmp ... ok
----------------------
SHARK INTEGRAL PACKAGE
----------------------

Number of atoms                             ...     18
Number of basis functions                   ...    389
Number of shells                            ...    151
Maximum angular momentum                    ...      3
Integral batch strategy                     ... SHARK/LIBINT Hybrid
RI-J (if used) integral strategy            ... SPLIT-RIJ (Revised 2003 algorithm where possible)
Printlevel                                  ...      1
Contraction scheme used                     ... SEGMENTED contraction
Coulomb Range Separation                    ... NOT USED
Exchange Range Separation                   ... NOT USED
Finite Nucleus Model                        ... NOT USED
Auxiliary Coulomb fitting basis             ... AVAILABLE
   # of basis functions in Aux-J            ...    618
   # of shells in Aux-J                     ...    202
   Maximum angular momentum in Aux-J        ...      4
Auxiliary J/K fitting basis                 ... NOT available
Auxiliary Correlation fitting basis         ... NOT available
Auxiliary 'external' fitting basis          ... NOT available
Integral threshold                          ...     2.500000e-11
Primitive cut-off                           ...     2.500000e-12
Primitive pair pre-selection threshold      ...     2.500000e-12

Calculating pre-screening integrals         ... done (  0.1 sec) Dimension = 151
Organizing shell pair data                  ... done (  0.5 sec)
Shell pair information
Total number of shell pairs                 ...     11476
Shell pairs after pre-screening             ...      9496
Total number of primitive shell pairs       ...     36592
Primitive shell pairs kept                  ...     21620
          la=0 lb=0:   2303 shell pairs
          la=1 lb=0:   2678 shell pairs
          la=1 lb=1:    796 shell pairs
          la=2 lb=0:   1383 shell pairs
          la=2 lb=1:    801 shell pairs
          la=2 lb=2:    220 shell pairs
          la=3 lb=0:    667 shell pairs
          la=3 lb=1:    390 shell pairs
          la=3 lb=2:    204 shell pairs
          la=3 lb=3:     54 shell pairs

Calculating one electron integrals          ... done (  0.7 sec)
Calculating RI/J V-Matrix + Cholesky decomp.... done (  1.4 sec)
Calculating Nuclear repulsion               ... done (  0.0 sec) ENN=    631.489285915085 Eh

SHARK setup successfully completed in   7.1 seconds

Maximum memory used throughout the entire GTOINT-calculation: 24.2 MB


           ************************************************************
           *        Program running with 8 parallel MPI-processes     *
           *              working on a common directory               *
           ************************************************************
-------------------------------------------------------------------------------
                                 ORCA SCF
-------------------------------------------------------------------------------

------------
SCF SETTINGS
------------
Hamiltonian:
 Density Functional     Method          .... DFT(GTOs)
 Exchange Functional    Exchange        .... PBE
   PBE kappa parameter   XKappa         ....  0.804000
   PBE mue parameter    XMuePBE         ....  0.219520
 Correlation Functional Correlation     .... PBE
   PBE beta parameter  CBetaPBE         ....  0.066725
 LDA part of GGA corr.  LDAOpt          .... PW91-LDA
 Gradients option       PostSCFGGA      .... off
 Hybrid DFT is turned on
   Fraction HF Exchange ScalHFX         ....  0.250000
   Scaling of DF-GGA-X  ScalDFX         ....  0.750000
   Scaling of DF-GGA-C  ScalDFC         ....  1.000000
   Scaling of DF-LDA-C  ScalLDAC        ....  1.000000
   Perturbative correction              ....  0.000000
   Density functional embedding theory  .... OFF
   NL short-range parameter             ....  6.900000
 RI-approximation to the Coulomb term is turned on
   Number of AuxJ basis functions       .... 618
   RIJ-COSX (HFX calculated with COS-X)).... on


General Settings:
 Integral files         IntName         .... /burg/berkelbach/users/eav2136/projects/peroxide_dissociation/04_solvated_radical/nmf/nmf_radical_opt
 Hartree-Fock type      HFTyp           .... UHF
 Total Charge           Charge          ....    0
 Multiplicity           Mult            ....    2
 Number of Electrons    NEL             ....   87
 Basis Dimension        Dim             ....  389
 Nuclear Repulsion      ENuc            ....    631.4892859151 Eh

Convergence Acceleration:
 DIIS                   CNVDIIS         .... on
   Start iteration      DIISMaxIt       ....    12
   Startup error        DIISStart       ....  0.200000
   # of expansion vecs  DIISMaxEq       ....     5
   Bias factor          DIISBfac        ....   1.050
   Max. coefficient     DIISMaxC        ....  10.000
 Trust-Rad. Augm. Hess. CNVTRAH         .... auto
   Auto Start mean grad. ratio tolernc. ....  1.125000
   Auto Start start iteration           ....    20
   Auto Start num. interpolation iter.  ....    10
   Max. Number of Micro iterations      ....    16
   Max. Number of Macro iterations      .... Maxiter - #DIIS iter
   Number of Davidson start vectors     ....     2
   Converg. threshold I  (grad. norm)   ....   1.000e-05
   Converg. threshold II (energy diff.) ....   1.000e-08
   Grad. Scal. Fac. for Micro threshold ....   0.100
   Minimum threshold for Micro iter.    ....   0.010
   NR start threshold (gradient norm)   ....   0.001
   Initial trust radius                 ....   0.400
   Minimum AH scaling param. (alpha)    ....   1.000
   Maximum AH scaling param. (alpha)    .... 1000.000
   Orbital update algorithm             .... Taylor
   White noise on init. David. guess    .... on
   Maximum white noise                  ....   0.010
   Quad. conv. algorithm                .... NR
 SOSCF                  CNVSOSCF        .... off
 Level Shifting         CNVShift        .... on
   Level shift para.    LevelShift      ....    0.2500
   Turn off err/grad.   ShiftErr        ....    0.0010
 Zerner damping         CNVZerner       .... off
 Static damping         CNVDamp         .... on
   Fraction old density DampFac         ....    0.7000
   Max. Damping (<1)    DampMax         ....    0.9800
   Min. Damping (>=0)   DampMin         ....    0.0000
   Turn off err/grad.   DampErr         ....    0.1000
 Fernandez-Rico         CNVRico         .... off

SCF Procedure:
 Maximum # iterations   MaxIter         ....   125
 SCF integral mode      SCFMode         .... Direct
   Integral package                     .... SHARK and LIBINT hybrid scheme
 Reset frequency        DirectResetFreq ....    20
 Integral Threshold     Thresh          ....  2.500e-11 Eh
 Primitive CutOff       TCut            ....  2.500e-12 Eh

Convergence Tolerance:
 Convergence Check Mode ConvCheckMode   .... Total+1el-Energy
 Convergence forced     ConvForced      .... 0
 Energy Change          TolE            ....  1.000e-08 Eh
 1-El. energy change                    ....  1.000e-05 Eh
 DIIS Error             TolErr          ....  5.000e-07


Diagonalization of the overlap matrix:
Smallest eigenvalue                        ... 7.498e-06
Time for diagonalization                   ...    0.115 sec
Threshold for overlap eigenvalues          ... 1.000e-08
Number of eigenvalues below threshold      ... 0
Time for construction of square roots      ...    0.794 sec
Total time needed                          ...    1.196 sec

Time for model grid setup =    4.250 sec

------------------------------
INITIAL GUESS: MODEL POTENTIAL
------------------------------
Loading Hartree-Fock densities                     ... done
Calculating cut-offs                               ... done
Initializing the effective Hamiltonian             ... done
Setting up the integral package (SHARK)            ... done
Starting the Coulomb interaction                   ... done (   3.1 sec)
Reading the grid                                   ... done
Mapping shells                                     ... done
Starting the XC term evaluation                    ... done (   0.7 sec)
  promolecular density results
     # of electrons  =     87.002319788
     EX              =    -84.142216924
     EC              =     -2.991987125
     EX+EC           =    -87.134204050
Transforming the Hamiltonian                       ... done (   0.9 sec)
Diagonalizing the Hamiltonian                      ... done (   0.7 sec)
Back transforming the eigenvectors                 ... done (   0.1 sec)
Now organizing SCF variables                       ... done
                      ------------------
                      INITIAL GUESS DONE (  10.3 sec)
                      ------------------
-------------------
DFT GRID GENERATION
-------------------

General Integration Accuracy     IntAcc      ... 4.388
Radial Grid Type                 RadialGrid  ... OptM3 with GC (2021)
Angular Grid (max. ang.)         AngularGrid ... 4 (Lebedev-302)
Angular grid pruning method      GridPruning ... 4 (adaptive)
Weight generation scheme         WeightScheme... Becke
Basis function cutoff            BFCut       ... 1.0000e-11
Integration weight cutoff        WCut        ... 1.0000e-14
Angular grids for H and He will be reduced by one unit
Partially contracted basis set               ... off
Rotationally invariant grid construction     ... off

Total number of grid points                  ...    90151
Total number of batches                      ...     1417
Average number of points per batch           ...       63
Average number of grid points per atom       ...     5008
Time for grid setup =    2.687 sec

--------------------
COSX GRID GENERATION
--------------------

GRIDX 1
-------
General Integration Accuracy     IntAcc      ... 3.816
Radial Grid Type                 RadialGrid  ... OptM3 with GC (2021)
Angular Grid (max. ang.)         AngularGrid ... 1 (Lebedev-50)
Angular grid pruning method      GridPruning ... 4 (adaptive)
Weight generation scheme         WeightScheme... Becke
Basis function cutoff            BFCut       ... 1.0000e-11
Integration weight cutoff        WCut        ... 1.0000e-14
Angular grids for H and He will be reduced by one unit
Partially contracted basis set               ... on
Rotationally invariant grid construction     ... off

Total number of grid points                  ...    11402
Total number of batches                      ...      186
Average number of points per batch           ...       61
Average number of grid points per atom       ...      633
UseSFitting                                  ... on

GRIDX 2
-------
General Integration Accuracy     IntAcc      ... 4.020
Radial Grid Type                 RadialGrid  ... OptM3 with GC (2021)
Angular Grid (max. ang.)         AngularGrid ... 2 (Lebedev-110)
Angular grid pruning method      GridPruning ... 4 (adaptive)
Weight generation scheme         WeightScheme... Becke
Basis function cutoff            BFCut       ... 1.0000e-11
Integration weight cutoff        WCut        ... 1.0000e-14
Angular grids for H and He will be reduced by one unit
Partially contracted basis set               ... on
Rotationally invariant grid construction     ... off

Total number of grid points                  ...    25317
Total number of batches                      ...      406
Average number of points per batch           ...       62
Average number of grid points per atom       ...     1406
UseSFitting                                  ... on

GRIDX 3
-------
General Integration Accuracy     IntAcc      ... 4.338
Radial Grid Type                 RadialGrid  ... OptM3 with GC (2021)
Angular Grid (max. ang.)         AngularGrid ... 3 (Lebedev-194)
Angular grid pruning method      GridPruning ... 4 (adaptive)
Weight generation scheme         WeightScheme... Becke
Basis function cutoff            BFCut       ... 1.0000e-11
Integration weight cutoff        WCut        ... 1.0000e-14
Angular grids for H and He will be reduced by one unit
Partially contracted basis set               ... on
Rotationally invariant grid construction     ... off

Total number of grid points                  ...    56227
Total number of batches                      ...      886
Average number of points per batch           ...       63
Average number of grid points per atom       ...     3124
UseSFitting                                  ... on

Time for X-Grid setup             =    5.138 sec


--------------------
CPCM SOLVATION MODEL
--------------------
CPCM parameters:
  Epsilon                                         ...     181.5600
  Refrac                                          ...       1.4319
  Rsolv                                           ...       1.3000
  Surface type                                    ... GAUSSIAN VDW
  Epsilon function type                           ...         CPCM
Solvent:                                     ... N-METHYLFORMAMIDE
SMD-CDS solvent descriptors:
  Soln                                       ...    1.4319
  Soln25                                     ...    1.4310
  Sola                                       ...    0.4000
  Solb                                       ...    0.5500
  Solg                                       ...   55.4400
  Solc                                       ...    0.0000
  Solh                                       ...    0.0000
Radii:
 Radius for C  used is    3.4960 Bohr (=   1.8500 Ang.)
 Radius for S  used is    4.7054 Bohr (=   2.4900 Ang.)
 Radius for O  used is    2.9744 Bohr (=   1.5740 Ang.)
 Radius for H  used is    2.2677 Bohr (=   1.2000 Ang.)
Calculating surface                               ...        done! (  0.2s)
GEPOL surface points                              ...         1075
GEPOL Volume                                      ...    1197.3397
GEPOL Surface-area                                ...     688.6869
Calculating surface distance matrix               ...        done! (  0.0s)
Performing Cholesky decomposition & store         ...        done! (  2.3s)
Overall time for CPCM initialization              ...                 2.8s
--------------
SCF ITERATIONS
--------------
ITER       Energy         Delta-E        Max-DP      RMS-DP      [F,P]     Damp
               ***  Starting incremental Fock matrix formation  ***
  0   -856.7925414922   0.000000000000 0.22347301  0.00124418  0.1697808 0.7000
  1   -856.9826671417  -0.190125649578 0.19576035  0.00103790  0.0649333 0.7000
                               ***Turning on DIIS***
  2   -857.0508989787  -0.068231836986 0.16161440  0.00115184  0.0175589 0.0000
  3   -857.1504629258  -0.099563947098 0.20889113  0.00104120  0.0484879 0.0000
  4   -857.1826570990  -0.032194173184 0.05617268  0.00031992  0.0082000 0.0000
  5   -857.1853170782  -0.002659979228 0.03344384  0.00017720  0.0109059 0.0000
  6   -857.1859259777  -0.000608899447 0.01242965  0.00006425  0.0019462 0.0000
  7   -857.1860706242  -0.000144646545 0.00600315  0.00003208  0.0019646 0.0000
  8   -857.1861472870  -0.000076662766 0.00680855  0.00005133  0.0008592 0.0000
               *** Restarting incremental Fock matrix formation ***
                                   *** Resetting DIIS ***
  9   -857.1862324935  -0.000085206469 0.00921403  0.00005477  0.0034422 0.0000
 10   -857.1862424000  -0.000009906510 0.00133731  0.00001244  0.0033401 0.0000
 11   -857.1863012700  -0.000058870020 0.00325287  0.00002574  0.0006684 0.0000
 12   -857.1863241663  -0.000022896357 0.00149483  0.00000842  0.0026249 0.0000
 13   -857.1863399187  -0.000015752390 0.00226029  0.00001300  0.0020944 0.0000
 14   -857.1863576943  -0.000017775610 0.00175625  0.00000979  0.0014176 0.0000
 15   -857.1863672636  -0.000009569223 0.00288616  0.00001597  0.0011476 0.0000
 16   -857.1863809835  -0.000013719933 0.00310885  0.00002805  0.0003965 0.0000
 17   -857.1863981126  -0.000017129097 0.00138438  0.00000763  0.0023496 0.0000
 18   -857.1864105431  -0.000012430460 0.00119215  0.00000641  0.0017806 0.0000
 19   -857.1864171887  -0.000006645689 0.00061108  0.00000357  0.0015041 0.0000

 WARNING: the maximum gradient error descreased on average only by a factor   1.0
          during the last 20 iterations

                      *** Initiating the TRAH-SCF procedure ***


TRAH GRIDX
----------

General Integration Accuracy     IntAcc      ... 3.067
Radial Grid Type                 RadialGrid  ... OptM3 with GC (2021)
Angular Grid (max. ang.)         AngularGrid ... 1 (Lebedev-50)
Angular grid pruning method      GridPruning ... 4 (adaptive)
Weight generation scheme         WeightScheme... Becke
Basis function cutoff            BFCut       ... 1.0000e-11
Integration weight cutoff        WCut        ... 1.0000e-14
Angular grids for H and He will be reduced by one unit
Partially contracted basis set               ... on
Rotationally invariant grid construction     ... off

Total number of grid points                  ...     6144
Total number of batches                      ...      108
Average number of points per batch           ...       56
Average number of grid points per atom       ...      341


TRAH GRID
---------

General Integration Accuracy     IntAcc      ... 3.467
Radial Grid Type                 RadialGrid  ... OptM3 with GC (2021)
Angular Grid (max. ang.)         AngularGrid ... 1 (Lebedev-50)
Angular grid pruning method      GridPruning ... 4 (adaptive)
Weight generation scheme         WeightScheme... Becke
Basis function cutoff            BFCut       ... 1.0000e-11
Integration weight cutoff        WCut        ... 1.0000e-14
Angular grids for H and He will be reduced by one unit
Partially contracted basis set               ... off
Rotationally invariant grid construction     ... off

Total number of grid points                  ...    13278
Total number of batches                      ...      215
Average number of points per batch           ...       61
Average number of grid points per atom       ...      738

 --------------------------------------------------------------------------------------------
   Iter.        energy            ||Error||_2        Shift      TRadius  Mac/Mic        Rej.
 --------------------------------------------------------------------------------------------
    0       -857.186420089383     4.301559e-03                     0.400 (TRAH MAcro)   No
    0     dE    -6.010534e-06     5.212991e-03    -6.0105e-06      0.001 (TRAH MIcro)
    0     dE    -1.214398e-04     8.856811e-03    -1.1988e-04      0.114 (TRAH MIcro)
    0     dE    -1.465398e-04     2.818849e-03    -1.4364e-04      0.142 (TRAH MIcro)
    0     dE    -1.515229e-04     1.950631e-03    -1.4830e-04      0.148 (TRAH MIcro)
    0     dE    -1.539825e-04     9.236592e-04    -1.5065e-04      0.149 (TRAH MIcro)
    0     dE    -1.544162e-04     6.625041e-04    -1.5108e-04      0.149 (TRAH MIcro)
    0     dE    -1.547298e-04     4.296740e-04    -1.5136e-04      0.149 (TRAH MIcro)
    1       -857.186609555033     2.920411e-03                     0.480 (TRAH MAcro)   No
    1     dE    -2.116332e-06     4.407223e-03    -2.1163e-06      0.001 (TRAH MIcro)
    1     dE    -6.861844e-06     2.891595e-03    -6.8616e-06      0.006 (TRAH MIcro)
    1     dE    -1.378962e-05     2.037811e-03    -1.3782e-05      0.023 (TRAH MIcro)
    1     dE    -2.561455e-05     3.272814e-03    -2.5544e-05      0.053 (TRAH MIcro)
    1     dE    -4.002988e-05     2.722453e-03    -3.9685e-05      0.093 (TRAH MIcro)
    1     dE    -4.566111e-05     1.933655e-03    -4.5123e-05      0.109 (TRAH MIcro)
    1     dE    -4.830800e-05     1.144460e-03    -4.7654e-05      0.117 (TRAH MIcro)
    1     dE    -4.898445e-05     6.809610e-04    -4.8295e-05      0.119 (TRAH MIcro)
    1     dE    -4.925322e-05     4.144961e-04    -4.8552e-05      0.120 (TRAH MIcro)
    1     dE    -4.934432e-05     2.186082e-04    -4.8638e-05      0.121 (TRAH MIcro)
    2       -857.186666358027     9.597836e-04                           (NR   MAcro)
    2     dE    -5.978664e-07     5.099328e-04                           (NR   MIcro)
    2     dE    -9.645551e-07     5.233751e-04                           (NR   MIcro)
    2     dE    -1.176416e-06     3.763825e-04                           (NR   MIcro)
    2     dE    -1.662852e-06     6.301565e-04                           (NR   MIcro)
    2     dE    -1.990470e-06     6.202043e-04                           (NR   MIcro)
    2     dE    -2.889851e-06     7.442985e-04                           (NR   MIcro)
    2     dE    -3.421673e-06     5.978188e-04                           (NR   MIcro)
    2     dE    -3.758322e-06     3.997036e-04                           (NR   MIcro)
    2     dE    -3.880869e-06     2.234285e-04                           (NR   MIcro)
    2     dE    -3.914710e-06     1.205122e-04                           (NR   MIcro)
    2     dE    -3.926800e-06     6.237160e-05                           (NR   MIcro)
    2     dE    -3.930041e-06     3.807607e-05                           (NR   MIcro)
    2     dE    -3.931441e-06     2.705276e-05                           (NR   MIcro)
    2     dE    -3.932103e-06     1.893294e-05                           (NR   MIcro)
    2     dE    -3.932393e-06     1.037530e-05                           (NR   MIcro)
    3       -857.186670261987     9.619655e-05                           (NR   MAcro)
    3     dE    -4.126800e-09     6.339871e-05                           (NR   MIcro)
    3     dE    -6.760464e-09     3.316264e-05                           (NR   MIcro)
    3     dE    -7.520861e-09     1.934068e-05                           (NR   MIcro)
    3     dE    -7.962650e-09     1.529630e-05                           (NR   MIcro)
    3     dE    -8.174408e-09     8.997944e-06                           (NR   MIcro)
    3     dE    -8.248246e-09     5.292977e-06                           (NR   MIcro)
    3     dE    -8.273719e-09     3.331699e-06                           (NR   MIcro)
    3     dE    -8.284324e-09     2.740475e-06                           (NR   MIcro)
    3     dE    -8.294032e-09     2.484910e-06                           (NR   MIcro)
    3     dE    -8.299205e-09     1.838218e-06                           (NR   MIcro)
    3     dE    -8.303955e-09     2.043084e-06                           (NR   MIcro)
    3     dE    -8.311649e-09     2.691683e-06                           (NR   MIcro)
    3     dE    -8.323908e-09     2.914822e-06                           (NR   MIcro)
    3     dE    -8.329550e-09     1.716004e-06                           (NR   MIcro)
    3     dE    -8.331550e-09     7.611052e-07                           (NR   MIcro)
    4       -857.186670269994     9.592725e-07                           (NR   MAcro)

               *****************************************************
               *                     SUCCESS                       *
               *           SCF CONVERGED AFTER  72 CYCLES          *
               *****************************************************

Old exchange energy                            =    -21.340930857 Eh
New exchange energy                            =    -21.340912961 Eh
Exchange energy change after final integration =      0.000017896 Eh
Total energy after final integration           =   -857.186652374 Eh
Final COS-X integration done in                =     9.861 sec

SMD CDS free energy correction energy :                 3.23713     Kcal/mol
Total Energy after SMD CDS correction =              -857.181493682 Eh

----------------
TOTAL SCF ENERGY
----------------

Total Energy       :         -857.18149368 Eh          -23325.09427 eV

Components:
Nuclear Repulsion  :          631.48928592 Eh           17183.69707 eV
Electronic Energy  :        -1488.67077960 Eh          -40508.79134 eV
One Electron Energy:        -2426.55438948 Eh          -66029.90183 eV
Two Electron Energy:          937.88360988 Eh           25521.11049 eV
Max COSX asymmetry :            0.00000043 Eh               0.00001 eV
CPCM Dielectric    :           -0.04067061 Eh              -1.10670 eV
SMD CDS (Gcds)     :            0.00515869 Eh               0.14038 eV

Virial components:
Potential Energy   :        -1711.65866664 Eh          -46576.60023 eV
Kinetic Energy     :          854.47717295 Eh           23251.50596 eV
Virial Ratio       :            2.00316488


DFT components:
N(Alpha)           :       44.000015508127 electrons
N(Beta)            :       43.000014719229 electrons
N(Total)           :       87.000030227356 electrons
E(X)               :      -63.891222947601 Eh       
E(C)               :       -2.994435149815 Eh       
E(XC)              :      -66.885658097415 Eh       
DFET-embed. en.    :        0.000000000000 Eh       
CPCM Solvation Model Properties:
Surface-charge          :           -0.03933296
Charge-correction       :           -0.00040717 Eh              -0.01108 eV
Free-energy (cav+disp)  :            0.00515869 Eh               0.14038 eV

---------------
SCF CONVERGENCE
---------------

  Last Energy change         ...   -8.0069e-09  Tolerance :   1.0000e-08
  Last Orbital Gradient      ...    9.5927e-07  Tolerance :   1.0000e-05
  Last Orbital Rotation      ...    3.2095e-04

             **** THE GBW FILE WAS UPDATED (/burg/berkelbach/users/eav2136/projects/peroxide_dissociation/04_solvated_radical/nmf/nmf_radical_opt.gbw) ****
             **** DENSITY /burg/berkelbach/users/eav2136/projects/peroxide_dissociation/04_solvated_radical/nmf/nmf_radical_opt.scfp WAS UPDATED ****
             **** ENERGY FILE WAS UPDATED (/burg/berkelbach/users/eav2136/projects/peroxide_dissociation/04_solvated_radical/nmf/nmf_radical_opt.en.tmp) ****
----------------------
UHF SPIN CONTAMINATION
----------------------

Warning: in a DFT calculation there is little theoretical justification to 
         calculate <S**2> as in Hartree-Fock theory. We will do it anyways
         but you should keep in mind that the values have only limited relevance

Expectation value of <S**2>     :     0.763382
Ideal value S*(S+1) for S=0.5   :     0.750000
Deviation                       :     0.013382

             **** THE GBW FILE WAS UPDATED (/burg/berkelbach/users/eav2136/projects/peroxide_dissociation/04_solvated_radical/nmf/nmf_radical_opt.gbw) ****
             **** DENSITY /burg/berkelbach/users/eav2136/projects/peroxide_dissociation/04_solvated_radical/nmf/nmf_radical_opt.scfp WAS UPDATED ****
----------------
ORBITAL ENERGIES
----------------
                 SPIN UP ORBITALS
  NO   OCC          E(Eh)            E(eV) 
   0   1.0000     -89.067025     -2423.6370 
   1   1.0000     -19.237541      -523.4801 
   2   1.0000     -19.214331      -522.8485 
   3   1.0000     -10.357767      -281.8492 
   4   1.0000     -10.294917      -280.1389 
   5   1.0000     -10.268493      -279.4199 
   6   1.0000     -10.255114      -279.0558 
   7   1.0000     -10.252840      -278.9940 
   8   1.0000     -10.252420      -278.9825 
   9   1.0000     -10.251638      -278.9612 
  10   1.0000     -10.249599      -278.9058 
  11   1.0000      -8.044403      -218.8993 
  12   1.0000      -5.980155      -162.7283 
  13   1.0000      -5.976345      -162.6246 
  14   1.0000      -5.976250      -162.6220 
  15   1.0000      -1.129197       -30.7270 
  16   1.0000      -1.009805       -27.4782 
  17   1.0000      -0.926196       -25.2031 
  18   1.0000      -0.860916       -23.4267 
  19   1.0000      -0.799396       -21.7527 
  20   1.0000      -0.793486       -21.5919 
  21   1.0000      -0.705908       -19.2087 
  22   1.0000      -0.657460       -17.8904 
  23   1.0000      -0.637335       -17.3428 
  24   1.0000      -0.593646       -16.1539 
  25   1.0000      -0.536153       -14.5895 
  26   1.0000      -0.515341       -14.0232 
  27   1.0000      -0.499803       -13.6003 
  28   1.0000      -0.483093       -13.1456 
  29   1.0000      -0.477341       -12.9891 
  30   1.0000      -0.459587       -12.5060 
  31   1.0000      -0.457183       -12.4406 
  32   1.0000      -0.453774       -12.3478 
  33   1.0000      -0.430943       -11.7266 
  34   1.0000      -0.418042       -11.3755 
  35   1.0000      -0.405375       -11.0308 
  36   1.0000      -0.379473       -10.3260 
  37   1.0000      -0.360907        -9.8208 
  38   1.0000      -0.354368        -9.6428 
  39   1.0000      -0.337367        -9.1802 
  40   1.0000      -0.328557        -8.9405 
  41   1.0000      -0.313384        -8.5276 
  42   1.0000      -0.293447        -7.9851 
  43   1.0000      -0.256137        -6.9699 
  44   0.0000      -0.054693        -1.4883 
  45   0.0000      -0.029550        -0.8041 
  46   0.0000       0.018306         0.4981 
  47   0.0000       0.028833         0.7846 
  48   0.0000       0.056974         1.5504 
  49   0.0000       0.078417         2.1338 
  50   0.0000       0.090286         2.4568 
  51   0.0000       0.096294         2.6203 
  52   0.0000       0.111608         3.0370 
  53   0.0000       0.114484         3.1153 
  54   0.0000       0.118271         3.2183 
  55   0.0000       0.125945         3.4271 
  56   0.0000       0.137451         3.7402 
  57   0.0000       0.151296         4.1170 
  58   0.0000       0.153126         4.1668 
  59   0.0000       0.174369         4.7448 
  60   0.0000       0.181260         4.9323 
  61   0.0000       0.202408         5.5078 
  62   0.0000       0.216967         5.9040 
  63   0.0000       0.221412         6.0249 
  64   0.0000       0.223362         6.0780 
  65   0.0000       0.232645         6.3306 
  66   0.0000       0.236522         6.4361 
  67   0.0000       0.242469         6.5979 
  68   0.0000       0.246723         6.7137 
  69   0.0000       0.255873         6.9627 
  70   0.0000       0.260239         7.0815 
  71   0.0000       0.278097         7.5674 
  72   0.0000       0.283344         7.7102 
  73   0.0000       0.294402         8.0111 
  74   0.0000       0.306320         8.3354 
  75   0.0000       0.314475         8.5573 
  76   0.0000       0.319009         8.6807 
  77   0.0000       0.339173         9.2294 
  78   0.0000       0.346258         9.4222 
  79   0.0000       0.347146         9.4463 
  80   0.0000       0.365104         9.9350 
  81   0.0000       0.366204         9.9649 
  82   0.0000       0.378637        10.3032 
  83   0.0000       0.388480        10.5711 
  84   0.0000       0.403041        10.9673 
  85   0.0000       0.403766        10.9870 
  86   0.0000       0.409030        11.1303 
  87   0.0000       0.419815        11.4238 
  88   0.0000       0.430015        11.7013 
  89   0.0000       0.432565        11.7707 
  90   0.0000       0.441191        12.0054 
  91   0.0000       0.450271        12.2525 
  92   0.0000       0.460913        12.5421 
  93   0.0000       0.464050        12.6275 
  94   0.0000       0.473470        12.8838 
  95   0.0000       0.482454        13.1283 
  96   0.0000       0.489198        13.3117 
  97   0.0000       0.502956        13.6861 
  98   0.0000       0.515063        14.0156 
  99   0.0000       0.518799        14.1172 
 100   0.0000       0.539697        14.6859 
 101   0.0000       0.548443        14.9239 
 102   0.0000       0.556596        15.1457 
 103   0.0000       0.561335        15.2747 
 104   0.0000       0.570240        15.5170 
 105   0.0000       0.582202        15.8425 
 106   0.0000       0.586740        15.9660 
 107   0.0000       0.615249        16.7418 
 108   0.0000       0.622009        16.9257 
 109   0.0000       0.634210        17.2577 
 110   0.0000       0.651884        17.7387 
 111   0.0000       0.664112        18.0714 
 112   0.0000       0.675675        18.3860 
 113   0.0000       0.685168        18.6444 
 114   0.0000       0.692355        18.8400 
 115   0.0000       0.697440        18.9783 
 116   0.0000       0.720601        19.6086 
 117   0.0000       0.735376        20.0106 
 118   0.0000       0.748232        20.3604 
 119   0.0000       0.768779        20.9195 
 120   0.0000       0.771046        20.9812 
 121   0.0000       0.783149        21.3106 
 122   0.0000       0.790839        21.5198 
 123   0.0000       0.809207        22.0196 
 124   0.0000       0.831192        22.6179 
 125   0.0000       0.842806        22.9339 
 126   0.0000       0.843879        22.9631 
 127   0.0000       0.851829        23.1794 
 128   0.0000       0.876336        23.8463 
 129   0.0000       0.898446        24.4480 
 130   0.0000       0.913379        24.8543 
 131   0.0000       0.925833        25.1932 
 132   0.0000       0.934569        25.4309 
 133   0.0000       0.947140        25.7730 
 134   0.0000       0.962662        26.1954 
 135   0.0000       0.966327        26.2951 
 136   0.0000       0.987529        26.8720 
 137   0.0000       0.998637        27.1743 
 138   0.0000       1.016093        27.6493 
 139   0.0000       1.034269        28.1439 
 140   0.0000       1.039928        28.2979 
 141   0.0000       1.074414        29.2363 
 142   0.0000       1.121062        30.5056 
 143   0.0000       1.135173        30.8896 
 144   0.0000       1.152888        31.3717 
 145   0.0000       1.164773        31.6951 
 146   0.0000       1.197787        32.5934 
 147   0.0000       1.211577        32.9687 
 148   0.0000       1.226601        33.3775 
 149   0.0000       1.238692        33.7065 
 150   0.0000       1.245724        33.8979 
 151   0.0000       1.253139        34.0996 
 152   0.0000       1.287071        35.0230 
 153   0.0000       1.296136        35.2696 
 154   0.0000       1.323292        36.0086 
 155   0.0000       1.337495        36.3951 
 156   0.0000       1.351997        36.7897 
 157   0.0000       1.366775        37.1918 
 158   0.0000       1.412444        38.4346 
 159   0.0000       1.430043        38.9134 
 160   0.0000       1.458628        39.6913 
 161   0.0000       1.467990        39.9460 
 162   0.0000       1.479994        40.2727 
 163   0.0000       1.484537        40.3963 
 164   0.0000       1.497145        40.7394 
 165   0.0000       1.508237        41.0412 
 166   0.0000       1.511130        41.1199 
 167   0.0000       1.514998        41.2252 
 168   0.0000       1.524868        41.4938 
 169   0.0000       1.541263        41.9399 
 170   0.0000       1.547427        42.1076 
 171   0.0000       1.553245        42.2659 
 172   0.0000       1.557765        42.3889 
 173   0.0000       1.583303        43.0839 
 174   0.0000       1.586126        43.1607 
 175   0.0000       1.603853        43.6431 
 176   0.0000       1.610141        43.8142 
 177   0.0000       1.616102        43.9764 
 178   0.0000       1.638686        44.5909 
 179   0.0000       1.657599        45.1056 
 180   0.0000       1.673482        45.5377 
 181   0.0000       1.676374        45.6165 
 182   0.0000       1.687419        45.9170 
 183   0.0000       1.695883        46.1473 
 184   0.0000       1.713674        46.6314 
 185   0.0000       1.731653        47.1207 
 186   0.0000       1.767991        48.1095 
 187   0.0000       1.779810        48.4311 
 188   0.0000       1.794547        48.8321 
 189   0.0000       1.814699        49.3805 
 190   0.0000       1.818527        49.4846 
 191   0.0000       1.829063        49.7713 
 192   0.0000       1.842061        50.1250 
 193   0.0000       1.853418        50.4341 
 194   0.0000       1.861379        50.6507 
 195   0.0000       1.871961        50.9386 
 196   0.0000       1.891145        51.4607 
 197   0.0000       1.907919        51.9171 
 198   0.0000       1.917902        52.1888 
 199   0.0000       1.958824        53.3023 
 200   0.0000       1.972264        53.6680 
 201   0.0000       2.016444        54.8702 
 202   0.0000       2.033359        55.3305 
 203   0.0000       2.049174        55.7609 
 204   0.0000       2.058934        56.0264 
 205   0.0000       2.070836        56.3503 
 206   0.0000       2.078896        56.5696 
 207   0.0000       2.084459        56.7210 
 208   0.0000       2.098456        57.1019 
 209   0.0000       2.127662        57.8966 
 210   0.0000       2.143565        58.3294 
 211   0.0000       2.161131        58.8074 
 212   0.0000       2.174247        59.1643 
 213   0.0000       2.179110        59.2966 
 214   0.0000       2.213283        60.2265 
 215   0.0000       2.230556        60.6965 
 216   0.0000       2.239442        60.9383 
 217   0.0000       2.256361        61.3987 
 218   0.0000       2.275917        61.9309 
 219   0.0000       2.310713        62.8777 
 220   0.0000       2.335552        63.5536 
 221   0.0000       2.352784        64.0225 
 222   0.0000       2.361305        64.2544 
 223   0.0000       2.402588        65.3777 
 224   0.0000       2.412369        65.6439 
 225   0.0000       2.423113        65.9363 
 226   0.0000       2.448697        66.6324 
 227   0.0000       2.520803        68.5945 
 228   0.0000       2.540605        69.1334 
 229   0.0000       2.549673        69.3801 
 230   0.0000       2.570752        69.9537 
 231   0.0000       2.584277        70.3218 
 232   0.0000       2.589639        70.4677 
 233   0.0000       2.609972        71.0210 
 234   0.0000       2.615308        71.1661 
 235   0.0000       2.636122        71.7325 
 236   0.0000       2.648394        72.0665 
 237   0.0000       2.658466        72.3405 
 238   0.0000       2.683535        73.0227 
 239   0.0000       2.690028        73.1994 
 240   0.0000       2.697976        73.4157 
 241   0.0000       2.711659        73.7880 
 242   0.0000       2.740015        74.5596 
 243   0.0000       2.746914        74.7473 
 244   0.0000       2.752467        74.8984 
 245   0.0000       2.760473        75.1163 
 246   0.0000       2.783516        75.7433 
 247   0.0000       2.796026        76.0837 
 248   0.0000       2.814047        76.5741 
 249   0.0000       2.834174        77.1218 
 250   0.0000       2.848044        77.4992 
 251   0.0000       2.867254        78.0219 
 252   0.0000       2.885200        78.5103 
 253   0.0000       2.903357        79.0044 
 254   0.0000       2.909792        79.1795 
 255   0.0000       2.933182        79.8159 
 256   0.0000       2.948915        80.2441 
 257   0.0000       2.953618        80.3720 
 258   0.0000       2.972718        80.8918 
 259   0.0000       2.977808        81.0303 
 260   0.0000       2.993619        81.4605 
 261   0.0000       3.009071        81.8810 
 262   0.0000       3.022275        82.2403 
 263   0.0000       3.038468        82.6809 
 264   0.0000       3.048271        82.9477 
 265   0.0000       3.056124        83.1614 
 266   0.0000       3.077766        83.7503 
 267   0.0000       3.113219        84.7150 
 268   0.0000       3.122369        84.9640 
 269   0.0000       3.129282        85.1521 
 270   0.0000       3.140755        85.4643 
 271   0.0000       3.153287        85.8053 
 272   0.0000       3.161011        86.0155 
 273   0.0000       3.175728        86.4160 
 274   0.0000       3.187867        86.7463 
 275   0.0000       3.208040        87.2952 
 276   0.0000       3.223273        87.7097 
 277   0.0000       3.245907        88.3256 
 278   0.0000       3.264661        88.8359 
 279   0.0000       3.269996        88.9811 
 280   0.0000       3.286620        89.4335 
 281   0.0000       3.298050        89.7445 
 282   0.0000       3.320040        90.3429 
 283   0.0000       3.338182        90.8366 
 284   0.0000       3.351054        91.1868 
 285   0.0000       3.356857        91.3447 
 286   0.0000       3.360416        91.4416 
 287   0.0000       3.378546        91.9349 
 288   0.0000       3.387536        92.1795 
 289   0.0000       3.395185        92.3877 
 290   0.0000       3.404800        92.6493 
 291   0.0000       3.422290        93.1252 
 292   0.0000       3.430131        93.3386 
 293   0.0000       3.466721        94.3343 
 294   0.0000       3.469902        94.4208 
 295   0.0000       3.486384        94.8693 
 296   0.0000       3.494671        95.0948 
 297   0.0000       3.497993        95.1852 
 298   0.0000       3.516585        95.6912 
 299   0.0000       3.540102        96.3311 
 300   0.0000       3.548776        96.5671 
 301   0.0000       3.560653        96.8903 
 302   0.0000       3.582551        97.4862 
 303   0.0000       3.593492        97.7839 
 304   0.0000       3.644737        99.1783 
 305   0.0000       3.657996        99.5391 
 306   0.0000       3.679220       100.1167 
 307   0.0000       3.710760       100.9749 
 308   0.0000       3.741809       101.8198 
 309   0.0000       3.784580       102.9837 
 310   0.0000       3.789734       103.1239 
 311   0.0000       3.833160       104.3056 
 312   0.0000       3.855027       104.9006 
 313   0.0000       3.901700       106.1707 
 314   0.0000       3.915429       106.5442 
 315   0.0000       3.939804       107.2075 
 316   0.0000       3.977871       108.2434 
 317   0.0000       4.037837       109.8751 
 318   0.0000       4.066527       110.6558 
 319   0.0000       4.119344       112.0930 
 320   0.0000       4.165135       113.3391 
 321   0.0000       4.177374       113.6721 
 322   0.0000       4.196849       114.2021 
 323   0.0000       4.200612       114.3045 
 324   0.0000       4.207633       114.4955 
 325   0.0000       4.233101       115.1885 
 326   0.0000       4.250832       115.6710 
 327   0.0000       4.273947       116.3000 
 328   0.0000       4.291657       116.7819 
 329   0.0000       4.313341       117.3720 
 330   0.0000       4.339139       118.0740 
 331   0.0000       4.371900       118.9655 
 332   0.0000       4.425673       120.4287 
 333   0.0000       4.446269       120.9891 
 334   0.0000       4.500479       122.4643 
 335   0.0000       4.521711       123.0420 
 336   0.0000       4.565831       124.2426 
 337   0.0000       4.658483       126.7638 
 338   0.0000       4.662323       126.8683 
 339   0.0000       4.686652       127.5303 
 340   0.0000       4.703005       127.9753 
 341   0.0000       4.872097       132.5765 
 342   0.0000       4.934964       134.2872 
 343   0.0000       4.948359       134.6517 
 344   0.0000       4.984209       135.6272 
 345   0.0000       5.110621       139.0671 
 346   0.0000       5.136175       139.7624 
 347   0.0000       5.148381       140.0946 
 348   0.0000       5.164752       140.5400 
 349   0.0000       5.177592       140.8894 
 350   0.0000       5.203917       141.6058 
 351   0.0000       5.245432       142.7355 
 352   0.0000       5.343859       145.4138 
 353   0.0000       5.377024       146.3163 
 354   0.0000       5.465332       148.7192 
 355   0.0000       5.482581       149.1886 
 356   0.0000       5.533693       150.5794 
 357   0.0000       5.597246       152.3088 
 358   0.0000       5.642745       153.5469 
 359   0.0000       5.759677       156.7288 
 360   0.0000       5.868807       159.6983 
 361   0.0000       6.076878       165.3603 
 362   0.0000       6.217777       169.1943 
 363   0.0000       6.305352       171.5773 
 364   0.0000       6.392175       173.9399 
 365   0.0000       6.416380       174.5986 
 366   0.0000       6.432202       175.0291 
 367   0.0000       6.528605       177.6524 
 368   0.0000       6.736670       183.3141 
 369   0.0000       6.748695       183.6413 
 370   0.0000       6.833822       185.9578 
 371   0.0000       6.897978       187.7035 
 372   0.0000       7.019870       191.0204 
 373   0.0000       7.121615       193.7890 
 374   0.0000       7.134391       194.1367 
 375   0.0000       8.908086       242.4013 
 376   0.0000       9.366604       254.8782 
 377   0.0000       9.534267       259.4406 
 378   0.0000      20.095753       546.8332 
 379   0.0000      22.023834       599.2990 
 380   0.0000      22.271683       606.0433 
 381   0.0000      22.739943       618.7853 
 382   0.0000      22.754610       619.1844 
 383   0.0000      22.808542       620.6520 
 384   0.0000      22.881735       622.6437 
 385   0.0000      23.247625       632.6000 
 386   0.0000      23.393698       636.5749 
 387   0.0000      43.769441      1191.0271 
 388   0.0000      43.938961      1195.6399 

                 SPIN DOWN ORBITALS
  NO   OCC          E(Eh)            E(eV) 
   0   1.0000     -89.065628     -2423.5990 
   1   1.0000     -19.222689      -523.0760 
   2   1.0000     -19.211203      -522.7634 
   3   1.0000     -10.358500      -281.8691 
   4   1.0000     -10.293904      -280.1114 
   5   1.0000     -10.266582      -279.3679 
   6   1.0000     -10.254962      -279.0517 
   7   1.0000     -10.252495      -278.9846 
   8   1.0000     -10.252315      -278.9797 
   9   1.0000     -10.251640      -278.9613 
  10   1.0000     -10.249340      -278.8987 
  11   1.0000      -8.043104      -218.8640 
  12   1.0000      -5.979333      -162.7059 
  13   1.0000      -5.975604      -162.6045 
  14   1.0000      -5.971715      -162.4986 
  15   1.0000      -1.119660       -30.4675 
  16   1.0000      -0.978183       -26.6177 
  17   1.0000      -0.922835       -25.1116 
  18   1.0000      -0.856226       -23.2991 
  19   1.0000      -0.798051       -21.7161 
  20   1.0000      -0.789414       -21.4810 
  21   1.0000      -0.703992       -19.1566 
  22   1.0000      -0.655352       -17.8330 
  23   1.0000      -0.633008       -17.2250 
  24   1.0000      -0.591218       -16.0879 
  25   1.0000      -0.526668       -14.3314 
  26   1.0000      -0.513798       -13.9811 
  27   1.0000      -0.491698       -13.3798 
  28   1.0000      -0.476075       -12.9547 
  29   1.0000      -0.474874       -12.9220 
  30   1.0000      -0.457177       -12.4404 
  31   1.0000      -0.453269       -12.3341 
  32   1.0000      -0.449672       -12.2362 
  33   1.0000      -0.428173       -11.6512 
  34   1.0000      -0.411178       -11.1887 
  35   1.0000      -0.401457       -10.9242 
  36   1.0000      -0.378124       -10.2893 
  37   1.0000      -0.355382        -9.6704 
  38   1.0000      -0.324411        -8.8277 
  39   1.0000      -0.317482        -8.6391 
  40   1.0000      -0.304446        -8.2844 
  41   1.0000      -0.291302        -7.9267 
  42   1.0000      -0.240202        -6.5362 
  43   0.0000      -0.187901        -5.1130 
  44   0.0000      -0.045647        -1.2421 
  45   0.0000      -0.024699        -0.6721 
  46   0.0000       0.020022         0.5448 
  47   0.0000       0.031991         0.8705 
  48   0.0000       0.058854         1.6015 
  49   0.0000       0.080240         2.1834 
  50   0.0000       0.091759         2.4969 
  51   0.0000       0.096923         2.6374 
  52   0.0000       0.113036         3.0759 
  53   0.0000       0.114987         3.1290 
  54   0.0000       0.120508         3.2792 
  55   0.0000       0.129946         3.5360 
  56   0.0000       0.138803         3.7770 
  57   0.0000       0.153017         4.1638 
  58   0.0000       0.154355         4.2002 
  59   0.0000       0.176277         4.7967 
  60   0.0000       0.183701         4.9988 
  61   0.0000       0.203475         5.5368 
  62   0.0000       0.218765         5.9529 
  63   0.0000       0.223497         6.0817 
  64   0.0000       0.224652         6.1131 
  65   0.0000       0.235379         6.4050 
  66   0.0000       0.238853         6.4995 
  67   0.0000       0.243934         6.6378 
  68   0.0000       0.248680         6.7669 
  69   0.0000       0.257036         6.9943 
  70   0.0000       0.262171         7.1340 
  71   0.0000       0.281327         7.6553 
  72   0.0000       0.285437         7.7671 
  73   0.0000       0.297049         8.0831 
  74   0.0000       0.308960         8.4072 
  75   0.0000       0.316160         8.6031 
  76   0.0000       0.321813         8.7570 
  77   0.0000       0.341419         9.2905 
  78   0.0000       0.348868         9.4932 
  79   0.0000       0.349736         9.5168 
  80   0.0000       0.367014         9.9869 
  81   0.0000       0.370003        10.0683 
  82   0.0000       0.380103        10.3431 
  83   0.0000       0.390949        10.6383 
  84   0.0000       0.406927        11.0731 
  85   0.0000       0.407604        11.0915 
  86   0.0000       0.411063        11.1856 
  87   0.0000       0.420982        11.4555 
  88   0.0000       0.431894        11.7524 
  89   0.0000       0.434905        11.8344 
  90   0.0000       0.442376        12.0377 
  91   0.0000       0.451819        12.2946 
  92   0.0000       0.462992        12.5986 
  93   0.0000       0.466290        12.6884 
  94   0.0000       0.474620        12.9151 
  95   0.0000       0.483455        13.1555 
  96   0.0000       0.490919        13.3586 
  97   0.0000       0.505937        13.7672 
  98   0.0000       0.516861        14.0645 
  99   0.0000       0.521640        14.1946 
 100   0.0000       0.544569        14.8185 
 101   0.0000       0.550435        14.9781 
 102   0.0000       0.564891        15.3715 
 103   0.0000       0.565898        15.3989 
 104   0.0000       0.573720        15.6117 
 105   0.0000       0.584468        15.9042 
 106   0.0000       0.588505        16.0140 
 107   0.0000       0.617756        16.8100 
 108   0.0000       0.623118        16.9559 
 109   0.0000       0.636868        17.3300 
 110   0.0000       0.656081        17.8529 
 111   0.0000       0.665542        18.1103 
 112   0.0000       0.679329        18.4855 
 113   0.0000       0.687751        18.7146 
 114   0.0000       0.694134        18.8884 
 115   0.0000       0.700755        19.0685 
 116   0.0000       0.721684        19.6380 
 117   0.0000       0.736380        20.0379 
 118   0.0000       0.750803        20.4304 
 119   0.0000       0.770575        20.9684 
 120   0.0000       0.772786        21.0286 
 121   0.0000       0.785193        21.3662 
 122   0.0000       0.793096        21.5812 
 123   0.0000       0.811923        22.0935 
 124   0.0000       0.832373        22.6500 
 125   0.0000       0.845223        22.9997 
 126   0.0000       0.846279        23.0284 
 127   0.0000       0.852816        23.2063 
 128   0.0000       0.878189        23.8967 
 129   0.0000       0.900969        24.5166 
 130   0.0000       0.914740        24.8913 
 131   0.0000       0.927072        25.2269 
 132   0.0000       0.938837        25.5471 
 133   0.0000       0.948854        25.8196 
 134   0.0000       0.965821        26.2813 
 135   0.0000       0.968151        26.3447 
 136   0.0000       0.989260        26.9191 
 137   0.0000       1.000308        27.2198 
 138   0.0000       1.017717        27.6935 
 139   0.0000       1.034902        28.1611 
 140   0.0000       1.041149        28.3311 
 141   0.0000       1.075701        29.2713 
 142   0.0000       1.122781        30.5524 
 143   0.0000       1.138637        30.9839 
 144   0.0000       1.153942        31.4004 
 145   0.0000       1.168274        31.7903 
 146   0.0000       1.200548        32.6686 
 147   0.0000       1.213549        33.0223 
 148   0.0000       1.228913        33.4404 
 149   0.0000       1.239753        33.7354 
 150   0.0000       1.247980        33.9593 
 151   0.0000       1.255405        34.1613 
 152   0.0000       1.289222        35.0815 
 153   0.0000       1.299058        35.3492 
 154   0.0000       1.325532        36.0695 
 155   0.0000       1.339365        36.4460 
 156   0.0000       1.355064        36.8732 
 157   0.0000       1.371685        37.3255 
 158   0.0000       1.419647        38.6306 
[...]
      f-1     :     0.005539
      f+2     :     0.006657
      f-2     :     0.009622
      f+3     :     0.014143
      f-3     :     0.007053
  3 C s       :     2.763754  s :     2.763754
      pz      :     0.914151  p :     2.897313
      px      :     0.990414
      py      :     0.992749
      dz2     :     0.040672  d :     0.380676
      dxz     :     0.077905
      dyz     :     0.054324
      dx2y2   :     0.091252
      dxy     :     0.116523
      f0      :     0.004767  f :     0.043329
      f+1     :     0.002495
      f-1     :     0.005724
      f+2     :     0.005821
      f-2     :     0.007366
      f+3     :     0.010789
      f-3     :     0.006367
  4 C s       :     2.759027  s :     2.759027
      pz      :     0.909504  p :     2.882432
      px      :     0.988962
      py      :     0.983967
      dz2     :     0.064755  d :     0.378729
      dxz     :     0.054743
      dyz     :     0.066471
      dx2y2   :     0.084813
      dxy     :     0.107947
      f0      :     0.003357  f :     0.042832
      f+1     :     0.004739
      f-1     :     0.005795
      f+2     :     0.006913
      f-2     :     0.007691
      f+3     :     0.008475
      f-3     :     0.005861
  5 C s       :     2.729909  s :     2.729909
      pz      :     0.829435  p :     2.771646
      px      :     1.028549
      py      :     0.913662
      dz2     :     0.066047  d :     0.490177
      dxz     :     0.097433
      dyz     :     0.075184
      dx2y2   :     0.136063
      dxy     :     0.115449
      f0      :     0.005682  f :     0.054193
      f+1     :     0.006005
      f-1     :     0.005260
      f+2     :     0.007252
      f-2     :     0.009013
      f+3     :     0.013903
      f-3     :     0.007077
  6 C s       :     2.757844  s :     2.757844
      pz      :     0.918121  p :     2.895576
      px      :     0.996215
      py      :     0.981241
      dz2     :     0.041284  d :     0.376770
      dxz     :     0.076791
      dyz     :     0.054559
      dx2y2   :     0.092161
      dxy     :     0.111974
      f0      :     0.004535  f :     0.042997
      f+1     :     0.002463
      f-1     :     0.005861
      f+2     :     0.005924
      f-2     :     0.007383
      f+3     :     0.010550
      f-3     :     0.006280
  7 C s       :     2.767505  s :     2.767505
      pz      :     0.916948  p :     2.890808
      px      :     0.982880
      py      :     0.990981
      dz2     :     0.070462  d :     0.386340
      dxz     :     0.057889
      dyz     :     0.064336
      dx2y2   :     0.081579
      dxy     :     0.112074
      f0      :     0.003444  f :     0.043136
      f+1     :     0.005247
      f-1     :     0.005718
      f+2     :     0.006976
      f-2     :     0.007626
      f+3     :     0.008154
      f-3     :     0.005972
  8 C s       :     2.752314  s :     2.752314
      pz      :     0.966112  p :     2.702278
      px      :     0.781398
      py      :     0.954769
      dz2     :     0.260406  d :     1.038789
      dxz     :     0.192169
      dyz     :     0.315360
      dx2y2   :     0.150784
      dxy     :     0.120070
      f0      :     0.024290  f :     0.156546
      f+1     :     0.022931
      f-1     :     0.045032
      f+2     :     0.013886
      f-2     :     0.022298
      f+3     :     0.012812
      f-3     :     0.015298
  9 O s       :     3.427181  s :     3.427181
      pz      :     1.585113  p :     4.586550
      px      :     1.468388
      py      :     1.533048
      dz2     :     0.010055  d :     0.060586
      dxz     :     0.007857
      dyz     :     0.016190
      dx2y2   :     0.012230
      dxy     :     0.014254
      f0      :     0.000532  f :     0.005311
      f+1     :     0.000361
      f-1     :     0.001073
      f+2     :     0.000746
      f-2     :     0.001143
      f+3     :     0.000853
      f-3     :     0.000602
 10 O s       :     3.426464  s :     3.426464
      pz      :     1.491132  p :     4.587525
      px      :     1.484132
      py      :     1.612261
      dz2     :     0.024839  d :     0.060671
      dxz     :     0.016326
      dyz     :     0.015504
      dx2y2   :     0.001877
      dxy     :     0.002126
      f0      :     0.001693  f :     0.005329
      f+1     :     0.001469
      f-1     :     0.001288
      f+2     :     0.000382
      f-2     :     0.000444
      f+3     :     0.000026
      f-3     :     0.000025
 11 H s       :     0.789519  s :     0.789519
      pz      :     0.021582  p :     0.067689
      px      :     0.013033
      py      :     0.033074
 12 H s       :     0.787972  s :     0.787972
      pz      :     0.024673  p :     0.068232
      px      :     0.014701
      py      :     0.028858
 13 H s       :     0.788109  s :     0.788109
      pz      :     0.025402  p :     0.068283
      px      :     0.028181
      py      :     0.014701
 14 H s       :     0.763154  s :     0.763154
      pz      :     0.019442  p :     0.063461
      px      :     0.028870
      py      :     0.015148
 15 H s       :     0.766084  s :     0.766084
      pz      :     0.011270  p :     0.061481
      px      :     0.032858
      py      :     0.017354
 16 H s       :     0.766377  s :     0.766377
      pz      :     0.019544  p :     0.061527
      px      :     0.027134
      py      :     0.014850
 17 H s       :     0.766836  s :     0.766836
      pz      :     0.011413  p :     0.062123
      px      :     0.034167
      py      :     0.016543

SPIN
  0 C s       :    -0.001097  s :    -0.001097
      pz      :    -0.000078  p :    -0.005449
      px      :    -0.004867
      py      :    -0.000503
      dz2     :     0.004649  d :     0.025982
      dxz     :     0.011130
      dyz     :     0.001092
      dx2y2   :     0.002026
      dxy     :     0.007085
      f0      :     0.000038  f :     0.001902
      f+1     :     0.001083
      f-1     :     0.000140
      f+2     :     0.000198
      f-2     :     0.000044
      f+3     :     0.000048
      f-3     :     0.000351
  1 S s       :     0.006541  s :     0.006541
      pz      :     0.241158  p :     0.390888
      px      :     0.026975
      py      :     0.122755
      dz2     :     0.001067  d :     0.010532
      dxz     :     0.003282
      dyz     :     0.004607
      dx2y2   :     0.002130
      dxy     :    -0.000555
      f0      :    -0.000243  f :     0.000958
      f+1     :     0.000061
      f-1     :     0.001314
      f+2     :    -0.000299
      f-2     :     0.000140
      f+3     :    -0.000163
      f-3     :     0.000148
  2 C s       :     0.000847  s :     0.000847
      pz      :     0.039359  p :     0.060966
      px      :     0.003176
      py      :     0.018431
      dz2     :     0.013907  d :     0.030763
      dxz     :     0.004121
      dyz     :     0.003804
      dx2y2   :     0.006458
      dxy     :     0.002473
      f0      :     0.000199  f :     0.003026
      f+1     :     0.000820
      f-1     :     0.000700
      f+2     :     0.000191
      f-2     :     0.000040
      f+3     :     0.000224
      f-3     :     0.000853
  3 C s       :     0.001728  s :     0.001728
      pz      :     0.044525  p :     0.073025
      px      :     0.004708
      py      :     0.023792
      dz2     :     0.000296  d :     0.004506
      dxz     :     0.002048
      dyz     :     0.000592
      dx2y2   :     0.001632
      dxy     :    -0.000062
      f0      :     0.000234  f :     0.000375
      f+1     :    -0.000033
      f-1     :    -0.000134
      f+2     :     0.000065
      f-2     :    -0.000029
      f+3     :     0.000237
      f-3     :     0.000035
  4 C s       :    -0.001163  s :    -0.001163
      pz      :    -0.012628  p :    -0.019331
      px      :    -0.002632
      py      :    -0.004071
      dz2     :     0.015487  d :     0.024766
      dxz     :     0.001493
      dyz     :     0.001456
      dx2y2   :     0.001707
      dxy     :     0.004622
      f0      :     0.000034  f :     0.003167
      f+1     :     0.001390
      f-1     :     0.000464
      f+2     :     0.000224
      f-2     :     0.000079
      f+3     :     0.000085
      f-3     :     0.000890
  5 C s       :     0.004998  s :     0.004998
      pz      :     0.113040  p :     0.184528
      px      :     0.014166
      py      :     0.057321
      dz2     :    -0.000875  d :    -0.006603
      dxz     :    -0.002052
      dyz     :    -0.000887
      dx2y2   :    -0.001470
      dxy     :    -0.001321
      f0      :    -0.000255  f :    -0.001500
      f+1     :    -0.000273
      f-1     :    -0.000117
      f+2     :    -0.000223
      f-2     :    -0.000297
      f+3     :    -0.000243
      f-3     :    -0.000091
  6 C s       :    -0.001837  s :    -0.001837
      pz      :    -0.022907  p :    -0.042573
      px      :    -0.004891
      py      :    -0.014775
      dz2     :     0.005222  d :     0.027779
      dxz     :     0.008104
      dyz     :     0.003972
      dx2y2   :     0.009015
      dxy     :     0.001466
      f0      :     0.000903  f :     0.003673
      f+1     :     0.000056
      f-1     :     0.000803
      f+2     :     0.000319
      f-2     :     0.000343
      f+3     :     0.000846
      f-3     :     0.000403
  7 C s       :     0.002514  s :     0.002514
      pz      :     0.060141  p :     0.095796
      px      :     0.007219
      py      :     0.028436
      dz2     :     0.000381  d :    -0.000440
      dxz     :     0.000286
      dyz     :    -0.000754
      dx2y2   :    -0.001063
      dxy     :     0.000710
      f0      :    -0.000108  f :    -0.000029
      f+1     :     0.000462
      f-1     :    -0.000406
      f+2     :    -0.000005
      f-2     :    -0.000117
      f+3     :    -0.000048
      f-3     :     0.000193
  8 C s       :    -0.001600  s :    -0.001600
      pz      :    -0.002958  p :    -0.010771
      px      :    -0.003820
      py      :    -0.003992
      dz2     :    -0.000314  d :     0.005280
      dxz     :     0.001911
      dyz     :    -0.001012
      dx2y2   :     0.001255
      dxy     :     0.003441
      f0      :     0.000072  f :     0.008748
      f+1     :     0.000426
      f-1     :     0.007309
      f+2     :     0.000094
      f-2     :     0.000370
      f+3     :     0.000152
      f-3     :     0.000326
  9 O s       :     0.000640  s :     0.000640
      pz      :     0.040122  p :     0.050602
      px      :     0.003920
      py      :     0.006559
      dz2     :     0.000040  d :    -0.000050
      dxz     :    -0.000001
      dyz     :     0.000070
      dx2y2   :    -0.000100
      dxy     :    -0.000059
      f0      :    -0.000010  f :    -0.000023
      f+1     :     0.000006
      f-1     :     0.000006
      f+2     :    -0.000011
      f-2     :    -0.000009
      f+3     :     0.000004
      f-3     :    -0.000010
 10 O s       :     0.000532  s :     0.000532
      pz      :     0.000323  p :     0.045626
      px      :    -0.000539
      py      :     0.045842
      dz2     :    -0.000088  d :    -0.000079
      dxz     :    -0.000168
      dyz     :     0.000145
      dx2y2   :     0.000003
      dxy     :     0.000029
      f0      :    -0.000021  f :    -0.000024
      f+1     :    -0.000012
      f-1     :     0.000007
      f+2     :    -0.000005
      f-2     :     0.000009
      f+3     :    -0.000001
      f-3     :    -0.000000
 11 H s       :    -0.000219  s :    -0.000219
      pz      :    -0.000015  p :    -0.000147
      px      :    -0.000126
      py      :    -0.000006
 12 H s       :     0.012080  s :     0.012080
      pz      :    -0.000182  p :    -0.000483
      px      :    -0.000180
      py      :    -0.000122
 13 H s       :     0.012336  s :     0.012336
      pz      :    -0.000144  p :    -0.000490
      px      :    -0.000309
      py      :    -0.000037
 14 H s       :    -0.002157  s :    -0.002157
      pz      :     0.001020  p :     0.001825
      px      :     0.000277
      py      :     0.000528
 15 H s       :     0.000402  s :     0.000402
      pz      :    -0.000261  p :    -0.000502
      px      :    -0.000063
      py      :    -0.000177
 16 H s       :     0.001012  s :     0.001012
      pz      :    -0.000561  p :    -0.001056
      px      :    -0.000166
      py      :    -0.000329
 17 H s       :    -0.002894  s :    -0.002894
      pz      :     0.001151  p :     0.002174
      px      :     0.000412
      py      :     0.000612


                      *****************************
                      * MAYER POPULATION ANALYSIS *
                      *****************************

  NA   - Mulliken gross atomic population
  ZA   - Total nuclear charge
  QA   - Mulliken gross atomic charge
  VA   - Mayer's total valence
  BVA  - Mayer's bonded valence
  FA   - Mayer's free valence

  ATOM       NA         ZA         QA         VA         BVA        FA
  0 C      6.4135     6.0000    -0.4135     3.8691     3.8685     0.0006
  1 S     15.8017    16.0000     0.1983     2.9254     2.7234     0.2021
  2 C      5.8050     6.0000     0.1950     3.8184     3.8064     0.0120
  3 C      6.1668     6.0000    -0.1668     3.8967     3.8879     0.0088
  4 C      6.2220     6.0000    -0.2220     3.9983     3.9965     0.0018
  5 C      5.7942     6.0000     0.2058     3.4343     3.3796     0.0546
  6 C      6.2305     6.0000    -0.2305     4.0114     4.0076     0.0038
  7 C      6.1266     6.0000    -0.1266     3.8785     3.8640     0.0145
  8 C      5.6994     6.0000     0.3006     4.4905     4.4902     0.0003
  9 O      8.5584     8.0000    -0.5584     1.8879     1.8847     0.0033
 10 O      8.5593     8.0000    -0.5593     1.8856     1.8829     0.0027
 11 H      0.7851     1.0000     0.2149     0.9500     0.9500     0.0000
 12 H      0.7888     1.0000     0.2112     0.9528     0.9524     0.0003
 13 H      0.7890     1.0000     0.2110     0.9525     0.9522     0.0003
 14 H      0.8038     1.0000     0.1962     0.9566     0.9566     0.0000
 15 H      0.8214     1.0000     0.1786     0.9745     0.9745     0.0000
 16 H      0.8226     1.0000     0.1774     0.9737     0.9737     0.0000
 17 H      0.8119     1.0000     0.1881     0.9573     0.9573     0.0000

  Mayer bond orders larger than 0.100000
B(  0-C ,  1-S ) :   1.0440 B(  0-C , 11-H ) :   0.9234 B(  0-C , 12-H ) :   0.9271 
B(  0-C , 13-H ) :   0.9268 B(  1-S ,  2-C ) :   1.3506 B(  2-C ,  3-C ) :   1.1976 
B(  2-C ,  7-C ) :   1.1682 B(  3-C ,  4-C ) :   1.5354 B(  3-C , 14-H ) :   0.9474 
B(  4-C ,  5-C ) :   1.2517 B(  4-C , 15-H ) :   0.9546 B(  5-C ,  6-C ) :   1.2624 
B(  5-C ,  8-C ) :   0.8541 B(  6-C ,  7-C ) :   1.5410 B(  6-C , 16-H ) :   0.9633 
B(  7-C , 17-H ) :   0.9575 B(  8-C ,  9-O ) :   1.7805 B(  8-C , 10-O ) :   1.7872 


-------
TIMINGS
-------

Total SCF time: 0 days 0 hours 2 min 52 sec 

Total time                  ....     172.430 sec
Sum of individual times     ....     148.670 sec  ( 86.2%)

Fock matrix formation       ....      84.723 sec  ( 49.1%)
  Split-RI-J                ....      14.971 sec  ( 17.7% of F)
  Chain of spheres X        ....      38.029 sec  ( 44.9% of F)
  XC integration            ....       8.224 sec  (  9.7% of F)
    Basis function eval.    ....       0.886 sec  ( 10.8% of XC)
    Density eval.           ....       2.091 sec  ( 25.4% of XC)
    XC-Functional eval.     ....       0.210 sec  (  2.6% of XC)
    XC-Potential eval.      ....       1.794 sec  ( 21.8% of XC)
Diagonalization             ....      23.475 sec  ( 13.6%)
Density matrix formation    ....       1.356 sec  (  0.8%)
Population analysis         ....       3.374 sec  (  2.0%)
Initial guess               ....       0.436 sec  (  0.3%)
Orbital Transformation      ....       0.000 sec  (  0.0%)
Orbital Orthonormalization  ....       0.200 sec  (  0.1%)
DIIS solution               ....      26.224 sec  ( 15.2%)
Grid generation             ....       9.082 sec  (  5.3%)

Maximum memory used throughout the entire SCF-calculation: 95.1 MB


-------------------------------------------------------------------------------
                          DFT DISPERSION CORRECTION                            
                                                                               
                              DFTD3 V3.1  Rev 1                                
                          USING Becke-Johnson damping                          
-------------------------------------------------------------------------------
The PBE0 functional is recognized
Active option DFTDOPT                   ...         4   

molecular C6(AA) [au] = 4868.945228 


            DFT-D V3
 parameters
 s6 scaling factor         :     1.0000 
 a1 scaling factor         :     0.4145 
 s8 scaling factor         :     1.2177 
 a2 scaling factor         :     4.8593 
 ad hoc parameters k1-k3   :    16.0000     1.3333    -4.0000 

 Edisp/kcal,au: -11.851090806914  -0.018885913333 
 E6   /kcal   :  -7.211140450 
 E8   /kcal   :  -4.639950356 
 % E8         :  39.152095212 

-------------------------   ----------------
Dispersion correction           -0.018885913
-------------------------   ----------------


-------------------------   --------------------
FINAL SINGLE POINT ENERGY      -857.224793374848
-------------------------   --------------------

                                *** OPTIMIZATION RUN DONE ***

                            ***************************************
                            *     ORCA property calculations      *
                            ***************************************

                                    ---------------------
                                    Active property flags
                                    ---------------------
   (+) Dipole Moment


------------------------------------------------------------------------------
                       ORCA ELECTRIC PROPERTIES CALCULATION
------------------------------------------------------------------------------

Dipole Moment Calculation                       ... on
Quadrupole Moment Calculation                   ... off
Polarizability Calculation                      ... off
GBWName                                         ... /burg/berkelbach/users/eav2136/projects/peroxide_dissociation/04_solvated_radical/nmf/nmf_radical_opt.gbw
Electron density                                ... /burg/berkelbach/users/eav2136/projects/peroxide_dissociation/04_solvated_radical/nmf/nmf_radical_opt.scfp
The origin for moment calculation is the CENTER OF MASS  = ( 1.618110,  6.624582  2.158594)

-------------
DIPOLE MOMENT
-------------
                                X             Y             Z
Electronic contribution:      3.06086      -0.95935      -1.75380
Nuclear contribution   :     -3.03110       8.26977       6.85140
                        -----------------------------------------
Total Dipole Moment    :      0.02976       7.31042       5.09760
                        -----------------------------------------
Magnitude (a.u.)       :      8.91227
Magnitude (Debye)      :     22.65320



--------------------
Rotational spectrum 
--------------------
 
Rotational constants in cm-1:     0.103258     0.015406     0.013870 
Rotational constants in MHz :  3095.593844   461.860307   415.826057 

 Dipole components along the rotational axes: 
x,y,z [a.u.] :    -8.906131    -0.320126    -0.083618 
x,y,z [Debye]:   -22.637585    -0.813695    -0.212540 

 

Timings for individual modules:

Sum of individual times         ...     6231.283 sec (= 103.855 min)
GTO integral calculation        ...       60.940 sec (=   1.016 min)   1.0 %
SCF iterations                  ...     5865.054 sec (=  97.751 min)  94.1 %
SCF Gradient evaluation         ...      304.879 sec (=   5.081 min)   4.9 %
Geometry relaxation             ...        0.410 sec (=   0.007 min)   0.0 %
                             ****ORCA TERMINATED NORMALLY****
TOTAL RUN TIME: 0 days 1 hours 44 minutes 16 seconds 47 msec
