Job execution start: Fri Apr 22 11:36:04 EDT 2022
Shared library path: /cm/shared/apps/cuda11.0/toolkit/11.0.3/compat:/burg/berkelbach/users/eav2136/builds/orca/5.0.3/orca:/cm/shared/apps/ucx/1.8.1/lib64:/cm/local/apps/cuda/libs/current/lib64:/cm/shared/apps/cuda11.0/toolkit/11.0.3/targets/x86_64-linux/lib:/cm/shared/apps/cuda11.0/visual-tools/11.0.3/libnvvp:/burg/opt/openmpi-4.1.1_ucx_cuda_11.0.3_support/lib:/cm/shared/apps/slurm/current/lib64/slurm:/cm/shared/apps/slurm/current/lib64
Slurm Job ID is: 1845609
Slurm Job name is: wb97x-d-radical_opt
g067

                                 *****************
                                 * O   R   C   A *
                                 *****************

                                            #,                                       
                                            ###                                      
                                            ####                                     
                                            #####                                    
                                            ######                                   
                                           ########,                                 
                                     ,,################,,,,,                         
                               ,,#################################,,                 
                          ,,##########################################,,             
                       ,#########################################, ''#####,          
                    ,#############################################,,   '####,        
                  ,##################################################,,,,####,       
                ,###########''''           ''''###############################       
              ,#####''   ,,,,##########,,,,          '''####'''          '####       
            ,##' ,,,,###########################,,,                        '##       
           ' ,,###''''                  '''############,,,                           
         ,,##''                                '''############,,,,        ,,,,,,###''
      ,#''                                            '''#######################'''  
     '                                                          ''''####''''         
             ,#######,   #######,   ,#######,      ##                                
            ,#'     '#,  ##    ##  ,#'     '#,    #''#        ######   ,####,        
            ##       ##  ##   ,#'  ##            #'  '#       #        #'  '#        
            ##       ##  #######   ##           ,######,      #####,   #    #        
            '#,     ,#'  ##    ##  '#,     ,#' ,#      #,         ##   #,  ,#        
             '#######'   ##     ##  '#######'  #'      '#     #####' # '####'        



                  #######################################################
                  #                        -***-                        #
                  #          Department of theory and spectroscopy      #
                  #    Directorship and core code : Frank Neese         #
                  #        Max Planck Institute fuer Kohlenforschung    #
                  #                Kaiser Wilhelm Platz 1               #
                  #                 D-45470 Muelheim/Ruhr               #
                  #                      Germany                        #
                  #                                                     #
                  #                  All rights reserved                #
                  #                        -***-                        #
                  #######################################################


                         Program Version 5.0.3 -  RELEASE  -


 With contributions from (in alphabetic order):
   Daniel Aravena         : Magnetic Suceptibility
   Michael Atanasov       : Ab Initio Ligand Field Theory (pilot matlab implementation)
   Alexander A. Auer      : GIAO ZORA, VPT2 properties, NMR spectrum
   Ute Becker             : Parallelization
   Giovanni Bistoni       : ED, misc. LED, open-shell LED, HFLD
   Martin Brehm           : Molecular dynamics
   Dmytro Bykov           : SCF Hessian
   Vijay G. Chilkuri      : MRCI spin determinant printing, contributions to CSF-ICE
   Dipayan Datta          : RHF DLPNO-CCSD density
   Achintya Kumar Dutta   : EOM-CC, STEOM-CC
   Dmitry Ganyushin       : Spin-Orbit,Spin-Spin,Magnetic field MRCI
   Miquel Garcia          : C-PCM and meta-GGA Hessian, CC/C-PCM, Gaussian charge scheme
   Yang Guo               : DLPNO-NEVPT2, F12-NEVPT2, CIM, IAO-localization
   Andreas Hansen         : Spin unrestricted coupled pair/coupled cluster methods
   Benjamin Helmich-Paris : MC-RPA, TRAH-SCF, COSX integrals
   Lee Huntington         : MR-EOM, pCC
   Robert Izsak           : Overlap fitted RIJCOSX, COSX-SCS-MP3, EOM
   Marcus Kettner         : VPT2
   Christian Kollmar      : KDIIS, OOCD, Brueckner-CCSD(T), CCSD density, CASPT2, CASPT2-K
   Simone Kossmann        : Meta GGA functionals, TD-DFT gradient, OOMP2, MP2 Hessian
   Martin Krupicka        : Initial AUTO-CI
   Lucas Lang             : DCDCAS
   Marvin Lechner         : AUTO-CI (C++ implementation), FIC-MRCC
   Dagmar Lenk            : GEPOL surface, SMD
   Dimitrios Liakos       : Extrapolation schemes; Compound Job, initial MDCI parallelization
   Dimitrios Manganas     : Further ROCIS development; embedding schemes
   Dimitrios Pantazis     : SARC Basis sets
   Anastasios Papadopoulos: AUTO-CI, single reference methods and gradients
   Taras Petrenko         : DFT Hessian,TD-DFT gradient, ASA, ECA, R-Raman, ABS, FL, XAS/XES, NRVS
   Peter Pinski           : DLPNO-MP2, DLPNO-MP2 Gradient
   Christoph Reimann      : Effective Core Potentials
   Marius Retegan         : Local ZFS, SOC
   Christoph Riplinger    : Optimizer, TS searches, QM/MM, DLPNO-CCSD(T), (RO)-DLPNO pert. Triples
   Tobias Risthaus        : Range-separated hybrids, TD-DFT gradient, RPA, STAB
   Michael Roemelt        : Original ROCIS implementation
   Masaaki Saitow         : Open-shell DLPNO-CCSD energy and density
   Barbara Sandhoefer     : DKH picture change effects
   Avijit Sen             : IP-ROCIS
   Kantharuban Sivalingam : CASSCF convergence, NEVPT2, FIC-MRCI
   Bernardo de Souza      : ESD, SOC TD-DFT
   Georgi Stoychev        : AutoAux, RI-MP2 NMR, DLPNO-MP2 response
   Willem Van den Heuvel  : Paramagnetic NMR
   Boris Wezisla          : Elementary symmetry handling
   Frank Wennmohs         : Technical directorship


 We gratefully acknowledge several colleagues who have allowed us to
 interface, adapt or use parts of their codes:
   Stefan Grimme, W. Hujo, H. Kruse, P. Pracht,  : VdW corrections, initial TS optimization,
                  C. Bannwarth, S. Ehlert          DFT functionals, gCP, sTDA/sTD-DF
   Ed Valeev, F. Pavosevic, A. Kumar             : LibInt (2-el integral package), F12 methods
   Garnet Chan, S. Sharma, J. Yang, R. Olivares  : DMRG
   Ulf Ekstrom                                   : XCFun DFT Library
   Mihaly Kallay                                 : mrcc  (arbitrary order and MRCC methods)
   Jiri Pittner, Ondrej Demel                    : Mk-CCSD
   Frank Weinhold                                : gennbo (NPA and NBO analysis)
   Christopher J. Cramer and Donald G. Truhlar   : smd solvation model
   Lars Goerigk                                  : TD-DFT with DH, B97 family of functionals
   V. Asgeirsson, H. Jonsson                     : NEB implementation
   FAccTs GmbH                                   : IRC, NEB, NEB-TS, DLPNO-Multilevel, CI-OPT
                                                   MM, QMMM, 2- and 3-layer-ONIOM, Crystal-QMMM,
                                                   LR-CPCM, SF, NACMEs, symmetry and pop. for TD-DFT,
                                                   nearIR, NL-DFT gradient (VV10), updates on ESD,
                                                   ML-optimized integration grids
   S Lehtola, MJT Oliveira, MAL Marques          : LibXC Library
   Liviu Ungur et al                             : ANISO software


 Your calculation uses the libint2 library for the computation of 2-el integrals
 For citations please refer to: http://libint.valeyev.net

 Your ORCA version has been built with support for libXC version: 5.1.0
 For citations please refer to: https://tddft.org/programs/libxc/

 This ORCA versions uses:
   CBLAS   interface :  Fast vector & matrix operations
   LAPACKE interface :  Fast linear algebra routines
   SCALAPACK package :  Parallel linear algebra routines
   Shared memory     :  Shared parallel matrices
   BLAS/LAPACK       :  OpenBLAS 0.3.15  USE64BITINT DYNAMIC_ARCH NO_AFFINITY SkylakeX SINGLE_THREADED
        Core in use  :  SkylakeX
   Copyright (c) 2011-2014, The OpenBLAS Project


Your calculation utilizes the atom-pairwise dispersion correction
with the zero-damping scheme (D30)
Cite in your paper:
S.Grimme, J.Antony, S.Ehrlich and H.Krieg, J.Chem.Phys., 132, (2010), 154104 
   

XCFun DFT library Copyright 2009-2010 Ulf Ekstrom and contributors.
See http://admol.org/xcfun for more information.
This is free software; see the source code for copying conditions.
There is ABSOLUTELY NO WARRANTY; not even for MERCHANTABILITY or FITNESS FOR A PARTICULAR PURPOSE.
For details see the documentation.
Scientific users of this library should cite U. Ekstrom, L. Visscher, R. Bast, A. J. Thorvaldsen and K. Ruud;
J.Chem.Theor.Comp. 2010, DOI: 10.1021/ct100117s
XCFun Version 0.99 

================================================================================

----- Orbital basis set information -----
Your calculation utilizes the basis: def2-TZVP
   F. Weigend and R. Ahlrichs, Phys. Chem. Chem. Phys. 7, 3297 (2005).

----- AuxJ basis set information -----
Your calculation utilizes the auxiliary basis: def2/J
   F. Weigend, Phys. Chem. Chem. Phys. 8, 1057 (2006).

================================================================================
                                        WARNINGS
                       Please study these warnings very carefully!
================================================================================


WARNING: Geometry Optimization
  ===> : Switching off AutoStart
         For restart on a previous wavefunction, please use MOREAD

INFO   : the flag for use of the SHARK integral package has been found!

================================================================================
                                       INPUT FILE
================================================================================
NAME = /burg/berkelbach/users/eav2136/projects/peroxide_dissociation/05_range_separated_functional/wb97x-d-radical/wb97x-d-radical_opt.inp
|  1> ! UKS wB97X-D3 def2-TZVP TIGHTSCF Opt PAL8
|  2> %maxcore 5000
|  3> * xyz 0 2
|  4>  C -0.07425707479814 6.45007760366319 3.54636897867849
|  5>  S 1.48979584793712 6.08048225687873 2.75598260255209
|  6>  C 1.14936654141856 4.63662227087222 1.83369205968326
|  7>  C -0.09136557109480 4.00305286554088 1.79338352444578
|  8>  C -0.25826928718407 2.84269542505768 1.05936282240646
|  9>  C 0.80050967676942 2.30271389692801 0.33923873907232
| 10>  C 2.02875697338567 2.96040825022008 0.34201900047512
| 11>  C 2.20764771123846 4.10330343094754 1.09121055149825
| 12>  C 0.66254428710301 1.09941809961861 -0.50690159852297
| 13>  O 0.00000000000000 0.00000000000000 0.00000000000000
| 14>  O 1.06713866538631 0.98717129960580 -1.62357736506780
| 15>  H 0.10416325535368 7.34607684664392 4.14087383255362
| 16>  H -0.38882275224257 5.64387294862163 4.21002028523424
| 17>  H -0.85323854703301 6.66443357654391 2.81385647784552
| 18>  H -0.93700004363157 4.40513362395569 2.33421606140266
| 19>  H -1.23507439683237 2.37497021944690 1.02749021968162
| 20>  H 2.84544686618639 2.55882587909200 -0.24576673820719
| 21>  H 3.17295340310622 4.59670965109571 1.10248346369500
| 22> *
| 23> 
| 24>                          ****END OF INPUT****
================================================================================

                       *****************************
                       * Geometry Optimization Run *
                       *****************************

Geometry optimization settings:
Update method            Update   .... BFGS
Choice of coordinates    CoordSys .... Z-matrix Internals
Initial Hessian          InHess   .... Almoef's Model

Convergence Tolerances:
Energy Change            TolE     ....  5.0000e-06 Eh
Max. Gradient            TolMAXG  ....  3.0000e-04 Eh/bohr
RMS Gradient             TolRMSG  ....  1.0000e-04 Eh/bohr
Max. Displacement        TolMAXD  ....  4.0000e-03 bohr
RMS Displacement         TolRMSD  ....  2.0000e-03 bohr
Strict Convergence                ....  False
------------------------------------------------------------------------------
                        ORCA OPTIMIZATION COORDINATE SETUP
------------------------------------------------------------------------------

The optimization will be done in new redundant internal coordinates
Making redundant internal coordinates   ...  (new redundants) done
Evaluating the initial hessian          ...  (Almloef) done
Evaluating the coordinates              ...  done
Calculating the B-matrix                .... done
Calculating the G-matrix                .... done
Diagonalizing the G-matrix              .... done
Small eigenvalue found = 1.379e-02
The first mode is                       ....   31
The number of degrees of freedom        ....   48

    -----------------------------------------------------------------
                    Redundant Internal Coordinates


    -----------------------------------------------------------------
         Definition                    Initial Value    Approx d2E/dq
    -----------------------------------------------------------------
      1. B(S   1,C   0)                  1.7910         0.386175   
      2. B(C   2,S   1)                  1.7468         0.454240   
      3. B(C   3,C   2)                  1.3937         0.616320   
      4. B(C   4,C   3)                  1.3831         0.640745   
      5. B(C   5,C   4)                  1.3897         0.625563   
      6. B(C   6,C   5)                  1.3933         0.617369   
      7. B(C   7,C   2)                  1.3985         0.605696   
      8. B(C   7,C   6)                  1.3782         0.652421   
      9. B(C   8,C   5)                  1.4775         0.453096   
     10. B(O   9,C   8)                  1.3801         0.580356   
     11. B(O  10,C   8)                  1.1930         1.153901   
     12. B(H  11,C   0)                  1.0900         0.360109   
     13. B(H  12,C   0)                  1.0906         0.359342   
     14. B(H  13,C   0)                  1.0906         0.359351   
     15. B(H  14,C   3)                  1.0813         0.371759   
     16. B(H  15,C   4)                  1.0835         0.368828   
     17. B(H  16,C   6)                  1.0834         0.368946   
     18. B(H  17,C   7)                  1.0842         0.367916   
     19. A(S   1,C   0,H  13)          111.5879         0.342618   
     20. A(S   1,C   0,H  12)          111.5859         0.342616   
     21. A(H  12,C   0,H  13)          110.3658         0.290648   
     22. A(H  11,C   0,H  12)          108.8436         0.290744   
     23. A(S   1,C   0,H  11)          105.5091         0.342738   
     24. A(H  11,C   0,H  13)          108.7656         0.290746   
     25. A(C   0,S   1,C   2)          103.4970         0.419917   
     26. A(S   1,C   2,C   7)          116.6202         0.431369   
     27. A(C   3,C   2,C   7)          119.0102         0.431786   
     28. A(S   1,C   2,C   3)          124.3692         0.432719   
     29. A(C   2,C   3,C   4)          120.2744         0.436178   
     30. A(C   4,C   3,H  14)          118.8821         0.356807   
     31. A(C   2,C   3,H  14)          120.8433         0.354461   
     32. A(C   5,C   4,H  15)          120.2581         0.354880   
     33. A(C   3,C   4,H  15)          119.1145         0.356327   
     34. A(C   3,C   4,C   5)          120.6005         0.437350   
     35. A(C   6,C   5,C   8)          117.8994         0.410112   
     36. A(C   4,C   5,C   8)          122.8259         0.411072   
     37. A(C   4,C   5,C   6)          119.1567         0.434432   
     38. A(C   7,C   6,H  16)          120.2952         0.357442   
     39. A(C   5,C   6,H  16)          119.2412         0.354107   
     40. A(C   5,C   6,C   7)          120.4618         0.437734   
     41. A(C   6,C   7,H  17)          119.9087         0.357272   
     42. A(C   2,C   7,H  17)          119.6508         0.352797   
     43. A(C   2,C   7,C   6)          120.4398         0.436231   
     44. A(O   9,C   8,O  10)          115.5727         0.473849   
     45. A(C   5,C   8,O  10)          125.5219         0.455899   
     46. A(C   5,C   8,O   9)          118.8999         0.403044   
     47. D(C   2,S   1,C   0,H  12)     61.4721         0.003898   
     48. D(C   2,S   1,C   0,H  11)    179.5234         0.003898   
     49. D(C   2,S   1,C   0,H  13)    -62.5176         0.003898   
     50. D(C   7,C   2,S   1,C   0)    179.8441         0.004531   
     51. D(C   3,C   2,S   1,C   0)      0.0768         0.004531   
     52. D(C   4,C   3,C   2,S   1)   -178.3900         0.026266   
     53. D(H  14,C   3,C   2,C   7)   -178.3097         0.026266   
     54. D(H  14,C   3,C   2,S   1)      1.4524         0.026266   
     55. D(C   4,C   3,C   2,C   7)      1.8479         0.026266   
     56. D(H  15,C   4,C   3,H  14)      1.1825         0.028529   
     57. D(H  15,C   4,C   3,C   2)   -178.9720         0.028529   
     58. D(C   5,C   4,C   3,H  14)    179.3028         0.028529   
     59. D(C   5,C   4,C   3,C   2)     -0.8517         0.028529   
     60. D(C   6,C   5,C   4,H  15)    176.7603         0.027109   
     61. D(C   6,C   5,C   4,C   3)     -1.3385         0.027109   
     62. D(C   8,C   5,C   4,H  15)      0.7946         0.027109   
     63. D(C   8,C   5,C   4,C   3)   -177.3042         0.027109   
     64. D(H  16,C   6,C   5,C   8)     -1.7852         0.026361   
     65. D(H  16,C   6,C   5,C   4)   -177.9495         0.026361   
     66. D(C   7,C   6,C   5,C   8)    178.6982         0.026361   
     67. D(C   7,C   6,C   5,C   4)      2.5338         0.026361   
     68. D(H  17,C   7,C   6,H  16)     -0.7379         0.029652   
     69. D(H  17,C   7,C   6,C   5)    178.7736         0.029652   
     70. D(C   2,C   7,C   6,H  16)    178.9472         0.029652   
     71. D(C   2,C   7,C   6,C   5)     -1.5413         0.029652   
     72. D(H  17,C   7,C   2,C   3)    179.0287         0.025317   
     73. D(H  17,C   7,C   2,S   1)     -0.7516         0.025317   
     74. D(C   6,C   7,C   2,C   3)     -0.6572         0.025317   
     75. D(C   6,C   7,C   2,S   1)    179.5625         0.025317   
     76. D(O   9,C   8,C   5,C   6)    137.7156         0.013991   
     77. D(O   9,C   8,C   5,C   4)    -46.2708         0.013991   
     78. D(O  10,C   8,C   5,C   6)    -43.1749         0.013991   
     79. D(O  10,C   8,C   5,C   4)    132.8388         0.013991   
    -----------------------------------------------------------------

Number of atoms                         .... 18
Number of degrees of freedom            .... 79

         *************************************************************
         *                GEOMETRY OPTIMIZATION CYCLE   1            *
         *************************************************************
---------------------------------
CARTESIAN COORDINATES (ANGSTROEM)
---------------------------------
  C     -0.074257    6.450078    3.546369
  S      1.489796    6.080482    2.755983
  C      1.149367    4.636622    1.833692
  C     -0.091366    4.003053    1.793384
  C     -0.258269    2.842695    1.059363
  C      0.800510    2.302714    0.339239
  C      2.028757    2.960408    0.342019
  C      2.207648    4.103303    1.091211
  C      0.662544    1.099418   -0.506902
  O      0.000000    0.000000    0.000000
  O      1.067139    0.987171   -1.623577
  H      0.104163    7.346077    4.140874
  H     -0.388823    5.643873    4.210020
  H     -0.853239    6.664434    2.813856
  H     -0.937000    4.405134    2.334216
  H     -1.235074    2.374970    1.027490
  H      2.845447    2.558826   -0.245767
  H      3.172953    4.596710    1.102483

----------------------------
CARTESIAN COORDINATES (A.U.)
----------------------------
  NO LB      ZA    FRAG     MASS         X           Y           Z
   0 C     6.0000    0    12.011   -0.140326   12.188880    6.701666
   1 S    16.0000    0    32.060    2.815306   11.490446    5.208052
   2 C     6.0000    0    12.011    2.171988    8.761946    3.465176
   3 C     6.0000    0    12.011   -0.172656    7.564674    3.389004
   4 C     6.0000    0    12.011   -0.488058    5.371916    2.001906
   5 C     6.0000    0    12.011    1.512744    4.351499    0.641068
   6 C     6.0000    0    12.011    3.833795    5.594361    0.646322
   7 C     6.0000    0    12.011    4.171850    7.754120    2.062089
   8 C     6.0000    0    12.011    1.252027    2.077599   -0.957905
   9 O     8.0000    0    15.999    0.000000    0.000000    0.000000
  10 O     8.0000    0    15.999    2.016600    1.865483   -3.068117
  11 H     1.0000    0     1.008    0.196840   13.882073    7.825117
  12 H     1.0000    0     1.008   -0.734769   10.665374    7.955785
  13 H     1.0000    0     1.008   -1.612387   12.593954    5.317418
  14 H     1.0000    0     1.008   -1.770673    8.324496    4.411029
  15 H     1.0000    0     1.008   -2.333952    4.488043    1.941675
  16 H     1.0000    0     1.008    5.377115    4.835480   -0.464432
  17 H     1.0000    0     1.008    5.996013    8.686522    2.083392

--------------------------------
INTERNAL COORDINATES (ANGSTROEM)
--------------------------------
 C      0   0   0     0.000000000000     0.00000000     0.00000000
 S      1   0   0     1.790969818017     0.00000000     0.00000000
 C      2   1   0     1.746780929995   103.49703222     0.00000000
 C      3   2   1     1.393718459520   124.36918170     0.07682297
 C      4   3   2     1.383138688329   120.27439762   181.60997218
 C      5   4   3     1.389666017657   120.60050203   359.14829865
 C      6   5   4     1.393255545064   119.15672375   358.66151732
 C      7   6   5     1.378223229504   120.46180539     2.53383799
 C      6   5   4     1.477466986255   122.82593719   182.69580816
 O      9   6   5     1.380084896203   118.89987975   313.72924568
 O      9   6   5     1.193004913083   125.52191253   132.83876530
 H      1   2   3     1.089992880213   105.50910599   179.52342869
 H      1   2   3     1.090573504139   111.58592171    61.47211732
 H      1   2   3     1.090566449636   111.58785041   297.48242808
 H      4   3   2     1.081326236832   120.84329981     1.45240478
 H      5   4   3     1.083480942612   119.11451180   181.02803207
 H      7   6   5     1.083394137146   119.24119758   182.05045369
 H      8   7   6     1.084154903776   119.90872766   178.77361985

---------------------------
INTERNAL COORDINATES (A.U.)
---------------------------
 C      0   0   0     0.000000000000     0.00000000     0.00000000
 S      1   0   0     3.384442470171     0.00000000     0.00000000
 C      2   1   0     3.300937573646   103.49703222     0.00000000
 C      3   2   1     2.633746196283   124.36918170     0.07682297
 C      4   3   2     2.613753326172   120.27439762   181.60997218
 C      5   4   3     2.626088190988   120.60050203   359.14829865
 C      6   5   4     2.632871414738   119.15672375   358.66151732
 C      7   6   5     2.604464455171   120.46180539     2.53383799
 C      6   5   4     2.792007975932   122.82593719   182.69580816
 O      9   6   5     2.607982495384   118.89987975   313.72924568
 O      9   6   5     2.254452562149   125.52191253   132.83876530
 H      1   2   3     2.059788031526   105.50910599   179.52342869
 H      1   2   3     2.060885251733   111.58592171    61.47211732
 H      1   2   3     2.060871920655   111.58785041   297.48242808
 H      4   3   2     2.043410449036   120.84329981     1.45240478
 H      5   4   3     2.047482252859   119.11451180   181.02803207
 H      7   6   5     2.047318214302   119.24119758   182.05045369
 H      8   7   6     2.048755854885   119.90872766   178.77361985

---------------------
BASIS SET INFORMATION
---------------------
There are 4 groups of distinct atoms

 Group   1 Type C   : 11s6p2d1f contracted to 5s3p2d1f pattern {62111/411/11/1}
 Group   2 Type S   : 14s9p3d1f contracted to 5s5p2d1f pattern {73211/51111/21/1}
 Group   3 Type O   : 11s6p2d1f contracted to 5s3p2d1f pattern {62111/411/11/1}
 Group   4 Type H   : 5s1p contracted to 3s1p pattern {311/1}

Atom   0C    basis set group =>   1
Atom   1S    basis set group =>   2
Atom   2C    basis set group =>   1
Atom   3C    basis set group =>   1
Atom   4C    basis set group =>   1
Atom   5C    basis set group =>   1
Atom   6C    basis set group =>   1
Atom   7C    basis set group =>   1
Atom   8C    basis set group =>   1
Atom   9O    basis set group =>   3
Atom  10O    basis set group =>   3
Atom  11H    basis set group =>   4
Atom  12H    basis set group =>   4
Atom  13H    basis set group =>   4
Atom  14H    basis set group =>   4
Atom  15H    basis set group =>   4
Atom  16H    basis set group =>   4
Atom  17H    basis set group =>   4
---------------------------------
AUXILIARY/J BASIS SET INFORMATION
---------------------------------
There are 4 groups of distinct atoms

 Group   1 Type C   : 12s5p4d2f1g contracted to 6s4p3d1f1g pattern {711111/2111/211/2/1}
 Group   2 Type S   : 14s5p5d2f1g contracted to 8s4p3d1f1g pattern {71111111/2111/311/2/1}
 Group   3 Type O   : 12s5p4d2f1g contracted to 6s4p3d1f1g pattern {711111/2111/211/2/1}
 Group   4 Type H   : 5s2p1d contracted to 3s1p1d pattern {311/2/1}

Atom   0C    basis set group =>   1
Atom   1S    basis set group =>   2
Atom   2C    basis set group =>   1
Atom   3C    basis set group =>   1
Atom   4C    basis set group =>   1
Atom   5C    basis set group =>   1
Atom   6C    basis set group =>   1
Atom   7C    basis set group =>   1
Atom   8C    basis set group =>   1
Atom   9O    basis set group =>   3
Atom  10O    basis set group =>   3
Atom  11H    basis set group =>   4
Atom  12H    basis set group =>   4
Atom  13H    basis set group =>   4
Atom  14H    basis set group =>   4
Atom  15H    basis set group =>   4
Atom  16H    basis set group =>   4
Atom  17H    basis set group =>   4


           ************************************************************
           *        Program running with 8 parallel MPI-processes     *
           *              working on a common directory               *
           ************************************************************
------------------------------------------------------------------------------
                           ORCA GTO INTEGRAL CALCULATION
                           -- RI-GTO INTEGRALS CHOSEN --
------------------------------------------------------------------------------
------------------------------------------------------------------------------
                   ___                                                        
                  /   \      - P O W E R E D   B Y -                         
                 /     \                                                     
                 |  |  |   _    _      __       _____    __    __             
                 |  |  |  | |  | |    /  \     |  _  \  |  |  /  |          
                  \  \/   | |  | |   /    \    | | | |  |  | /  /          
                 / \  \   | |__| |  /  /\  \   | |_| |  |  |/  /          
                |  |  |   |  __  | /  /__\  \  |    /   |      \           
                |  |  |   | |  | | |   __   |  |    \   |  |\   \          
                \     /   | |  | | |  |  |  |  | |\  \  |  | \   \       
                 \___/    |_|  |_| |__|  |__|  |_| \__\ |__|  \__/        
                                                                              
                      - O R C A' S   B I G   F R I E N D -                    
                                      &                                       
                       - I N T E G R A L  F E E D E R -                       
                                                                              
 v1 FN, 2020, v2 2021                                                         
------------------------------------------------------------------------------


Reading SHARK input file /burg/berkelbach/users/eav2136/projects/peroxide_dissociation/05_range_separated_functional/wb97x-d-radical/wb97x-d-radical_opt.SHARKINP.tmp ... ok
----------------------
SHARK INTEGRAL PACKAGE
----------------------

Number of atoms                             ...     18
Number of basis functions                   ...    389
Number of shells                            ...    151
Maximum angular momentum                    ...      3
Integral batch strategy                     ... SHARK/LIBINT Hybrid
RI-J (if used) integral strategy            ... SPLIT-RIJ (Revised 2003 algorithm where possible)
Printlevel                                  ...      1
Contraction scheme used                     ... SEGMENTED contraction
Coulomb Range Separation                    ... NOT USED
Exchange Range Separation                   ... Long Range
   Mu parameter                             ...  0.250000
   Scaling (regular/separated)              ...  0.195728  0.804272
Finite Nucleus Model                        ... NOT USED
Auxiliary Coulomb fitting basis             ... AVAILABLE
   # of basis functions in Aux-J            ...    618
   # of shells in Aux-J                     ...    202
   Maximum angular momentum in Aux-J        ...      4
Auxiliary J/K fitting basis                 ... NOT available
Auxiliary Correlation fitting basis         ... NOT available
Auxiliary 'external' fitting basis          ... NOT available
Integral threshold                          ...     2.500000e-11
Primitive cut-off                           ...     2.500000e-12
Primitive pair pre-selection threshold      ...     2.500000e-12

Calculating pre-screening integrals         ... done (  0.0 sec) Dimension = 151
Organizing shell pair data                  ... done (  0.2 sec)
Shell pair information
Total number of shell pairs                 ...     11476
Shell pairs after pre-screening             ...      9496
Total number of primitive shell pairs       ...     36592
Primitive shell pairs kept                  ...     21620
          la=0 lb=0:   2303 shell pairs
          la=1 lb=0:   2678 shell pairs
          la=1 lb=1:    796 shell pairs
          la=2 lb=0:   1383 shell pairs
          la=2 lb=1:    801 shell pairs
          la=2 lb=2:    220 shell pairs
          la=3 lb=0:    667 shell pairs
          la=3 lb=1:    390 shell pairs
          la=3 lb=2:    204 shell pairs
          la=3 lb=3:     54 shell pairs

Calculating one electron integrals          ... done (  0.0 sec)
Calculating RI/J V-Matrix + Cholesky decomp.... done (  0.0 sec)
Calculating Nuclear repulsion               ... done (  0.0 sec) ENN=    631.489285915085 Eh

SHARK setup successfully completed in   0.5 seconds

Maximum memory used throughout the entire GTOINT-calculation: 24.2 MB


           ************************************************************
           *        Program running with 8 parallel MPI-processes     *
           *              working on a common directory               *
           ************************************************************
-------------------------------------------------------------------------------
                                 ORCA SCF
-------------------------------------------------------------------------------

------------
SCF SETTINGS
------------
Hamiltonian:
 Density Functional     Method          .... DFT(GTOs)
 Exchange Functional    Exchange        .... WB97X-D3
 Correlation Functional Correlation     .... WB97X-D3
 Gradients option       PostSCFGGA      .... off
 Hybrid DFT is turned on
   Fraction HF Exchange ScalHFX         ....  0.195728
   Scaling of DF-GGA-X  ScalDFX         ....  0.000000
   Scaling of DF-GGA-C  ScalDFC         ....  1.000000
   Scaling of DF-LDA-C  ScalLDAC        ....  1.000000
   Perturbative correction              ....  0.000000
   Density functional embedding theory  .... OFF
 Long-range corrected/Screened/Range-Separated Hybrid DFT is turned on
   Amount of maximum screened exact exchange              ....  0.804272
   Range separation parameter mu (erf(mu*r12)/r12)        ....  0.250000
 RI-approximation to the Coulomb term is turned on
   Number of AuxJ basis functions       .... 618
   RIJ-COSX (HFX calculated with COS-X)).... on


General Settings:
 Integral files         IntName         .... /burg/berkelbach/users/eav2136/projects/peroxide_dissociation/05_range_separated_functional/wb97x-d-radical/wb97x-d-radical_opt
 Hartree-Fock type      HFTyp           .... UHF
 Total Charge           Charge          ....    0
 Multiplicity           Mult            ....    2
 Number of Electrons    NEL             ....   87
 Basis Dimension        Dim             ....  389
 Nuclear Repulsion      ENuc            ....    631.4892859151 Eh

Convergence Acceleration:
 DIIS                   CNVDIIS         .... on
   Start iteration      DIISMaxIt       ....    12
   Startup error        DIISStart       ....  0.200000
   # of expansion vecs  DIISMaxEq       ....     5
   Bias factor          DIISBfac        ....   1.050
   Max. coefficient     DIISMaxC        ....  10.000
 Trust-Rad. Augm. Hess. CNVTRAH         .... auto
   Auto Start mean grad. ratio tolernc. ....  1.125000
   Auto Start start iteration           ....    20
   Auto Start num. interpolation iter.  ....    10
   Max. Number of Micro iterations      ....    16
   Max. Number of Macro iterations      .... Maxiter - #DIIS iter
   Number of Davidson start vectors     ....     2
   Converg. threshold I  (grad. norm)   ....   1.000e-05
   Converg. threshold II (energy diff.) ....   1.000e-08
   Grad. Scal. Fac. for Micro threshold ....   0.100
   Minimum threshold for Micro iter.    ....   0.010
   NR start threshold (gradient norm)   ....   0.001
   Initial trust radius                 ....   0.400
   Minimum AH scaling param. (alpha)    ....   1.000
   Maximum AH scaling param. (alpha)    .... 1000.000
   Orbital update algorithm             .... Taylor
   White noise on init. David. guess    .... on
   Maximum white noise                  ....   0.010
   Quad. conv. algorithm                .... NR
 SOSCF                  CNVSOSCF        .... off
 Level Shifting         CNVShift        .... on
   Level shift para.    LevelShift      ....    0.2500
   Turn off err/grad.   ShiftErr        ....    0.0010
 Zerner damping         CNVZerner       .... off
 Static damping         CNVDamp         .... on
   Fraction old density DampFac         ....    0.7000
   Max. Damping (<1)    DampMax         ....    0.9800
   Min. Damping (>=0)   DampMin         ....    0.0000
   Turn off err/grad.   DampErr         ....    0.1000
 Fernandez-Rico         CNVRico         .... off

SCF Procedure:
 Maximum # iterations   MaxIter         ....   125
 SCF integral mode      SCFMode         .... Direct
   Integral package                     .... SHARK and LIBINT hybrid scheme
 Reset frequency        DirectResetFreq ....    20
 Integral Threshold     Thresh          ....  2.500e-11 Eh
 Primitive CutOff       TCut            ....  2.500e-12 Eh

Convergence Tolerance:
 Convergence Check Mode ConvCheckMode   .... Total+1el-Energy
 Convergence forced     ConvForced      .... 0
 Energy Change          TolE            ....  1.000e-08 Eh
 1-El. energy change                    ....  1.000e-05 Eh
 DIIS Error             TolErr          ....  5.000e-07


Diagonalization of the overlap matrix:
Smallest eigenvalue                        ... 7.498e-06
Time for diagonalization                   ...    0.020 sec
Threshold for overlap eigenvalues          ... 1.000e-08
Number of eigenvalues below threshold      ... 0
Time for construction of square roots      ...    0.014 sec
Total time needed                          ...    0.035 sec

Time for model grid setup =    0.100 sec

------------------------------
INITIAL GUESS: MODEL POTENTIAL
------------------------------
Loading Hartree-Fock densities                     ... done
Calculating cut-offs                               ... done
Initializing the effective Hamiltonian             ... done
Setting up the integral package (SHARK)            ... done
Starting the Coulomb interaction                   ... done (   0.1 sec)
Reading the grid                                   ... done
Mapping shells                                     ... done
Starting the XC term evaluation                    ... done (   0.1 sec)
  promolecular density results
     # of electrons  =     87.002319788
     EX              =    -84.142216924
     EC              =     -2.991987125
     EX+EC           =    -87.134204050
Transforming the Hamiltonian                       ... done (   0.0 sec)
Diagonalizing the Hamiltonian                      ... done (   0.0 sec)
Back transforming the eigenvectors                 ... done (   0.0 sec)
Now organizing SCF variables                       ... done
                      ------------------
                      INITIAL GUESS DONE (   0.3 sec)
                      ------------------
-------------------
DFT GRID GENERATION
-------------------

General Integration Accuracy     IntAcc      ... 4.388
Radial Grid Type                 RadialGrid  ... OptM3 with GC (2021)
Angular Grid (max. ang.)         AngularGrid ... 4 (Lebedev-302)
Angular grid pruning method      GridPruning ... 4 (adaptive)
Weight generation scheme         WeightScheme... Becke
Basis function cutoff            BFCut       ... 1.0000e-11
Integration weight cutoff        WCut        ... 1.0000e-14
Angular grids for H and He will be reduced by one unit
Partially contracted basis set               ... off
Rotationally invariant grid construction     ... off

Total number of grid points                  ...    90151
Total number of batches                      ...     1417
Average number of points per batch           ...       63
Average number of grid points per atom       ...     5008
Time for grid setup =    0.416 sec

--------------------
COSX GRID GENERATION
--------------------

GRIDX 1
-------
General Integration Accuracy     IntAcc      ... 3.816
Radial Grid Type                 RadialGrid  ... OptM3 with GC (2021)
Angular Grid (max. ang.)         AngularGrid ... 1 (Lebedev-50)
Angular grid pruning method      GridPruning ... 4 (adaptive)
Weight generation scheme         WeightScheme... Becke
Basis function cutoff            BFCut       ... 1.0000e-11
Integration weight cutoff        WCut        ... 1.0000e-14
Angular grids for H and He will be reduced by one unit
Partially contracted basis set               ... on
Rotationally invariant grid construction     ... off

Total number of grid points                  ...    11402
Total number of batches                      ...      186
Average number of points per batch           ...       61
Average number of grid points per atom       ...      633
UseSFitting                                  ... on

GRIDX 2
-------
General Integration Accuracy     IntAcc      ... 4.020
Radial Grid Type                 RadialGrid  ... OptM3 with GC (2021)
Angular Grid (max. ang.)         AngularGrid ... 2 (Lebedev-110)
Angular grid pruning method      GridPruning ... 4 (adaptive)
Weight generation scheme         WeightScheme... Becke
Basis function cutoff            BFCut       ... 1.0000e-11
Integration weight cutoff        WCut        ... 1.0000e-14
Angular grids for H and He will be reduced by one unit
Partially contracted basis set               ... on
Rotationally invariant grid construction     ... off

Total number of grid points                  ...    25317
Total number of batches                      ...      406
Average number of points per batch           ...       62
Average number of grid points per atom       ...     1406
UseSFitting                                  ... on

GRIDX 3
-------
General Integration Accuracy     IntAcc      ... 4.338
Radial Grid Type                 RadialGrid  ... OptM3 with GC (2021)
Angular Grid (max. ang.)         AngularGrid ... 3 (Lebedev-194)
Angular grid pruning method      GridPruning ... 4 (adaptive)
Weight generation scheme         WeightScheme... Becke
Basis function cutoff            BFCut       ... 1.0000e-11
Integration weight cutoff        WCut        ... 1.0000e-14
Angular grids for H and He will be reduced by one unit
Partially contracted basis set               ... on
Rotationally invariant grid construction     ... off

Total number of grid points                  ...    56227
Total number of batches                      ...      886
Average number of points per batch           ...       63
Average number of grid points per atom       ...     3124
UseSFitting                                  ... on

Time for X-Grid setup             =    0.482 sec

--------------
SCF ITERATIONS
--------------
ITER       Energy         Delta-E        Max-DP      RMS-DP      [F,P]     Damp
               ***  Starting incremental Fock matrix formation  ***
  0   -857.1403608473   0.000000000000 0.27132935  0.00132229  0.1706177 0.7000
  1   -857.3809931346  -0.240632287342 0.14802402  0.00073632  0.0674154 0.7000
                               ***Turning on DIIS***
  2   -857.4659011078  -0.084907973186 0.08281730  0.00094248  0.0251950 0.0000
  3   -857.6174359613  -0.151534853491 0.18888140  0.00091717  0.0669529 0.0000
  4   -857.6696679142  -0.052231952888 0.07280304  0.00045044  0.0203176 0.0000
  5   -857.6796492672  -0.009981352986 0.04763337  0.00029527  0.0228286 0.0000
  6   -857.6843079298  -0.004658662648 0.01787021  0.00011423  0.0069563 0.0000
  7   -857.6858418244  -0.001533894618 0.00810109  0.00005860  0.0039204 0.0000
  8   -857.6866107134  -0.000768889013 0.00554009  0.00004485  0.0034404 0.0000
  9   -857.6871271027  -0.000516389267 0.00278484  0.00003121  0.0026868 0.0000
 10   -857.6874260356  -0.000298932877 0.00160321  0.00002139  0.0024874 0.0000
 11   -857.6876001424  -0.000174106816 0.00158033  0.00002328  0.0017933 0.0000
 12   -857.6877308173  -0.000130674876 0.00147007  0.00001571  0.0018469 0.0000
 13   -857.6878100711  -0.000079253870 0.00117921  0.00001560  0.0011908 0.0000
 14   -857.6878638732  -0.000053802062 0.00118778  0.00001279  0.0011883 0.0000
 15   -857.6878992302  -0.000035356969 0.00186189  0.00001943  0.0008637 0.0000
               *** Restarting incremental Fock matrix formation ***
                                   *** Resetting DIIS ***
 16   -857.6879282277  -0.000028997532 0.00099965  0.00001382  0.0004387 0.0000
 17   -857.6879328942  -0.000004666454 0.00019767  0.00000230  0.0002988 0.0000
 18   -857.6879351584  -0.000002264293 0.00052898  0.00000616  0.0003243 0.0000
 19   -857.6879402696  -0.000005111131 0.00041274  0.00000425  0.0001933 0.0000
 20   -857.6879424939  -0.000002224348 0.00029183  0.00000336  0.0001669 0.0000
 21   -857.6879435303  -0.000001036337 0.00019344  0.00000205  0.0000745 0.0000
 22   -857.6879438383  -0.000000308058 0.00009608  0.00000107  0.0000290 0.0000
 23   -857.6879438936  -0.000000055282 0.00002477  0.00000035  0.0000217 0.0000
 24   -857.6879439069  -0.000000013322 0.00002955  0.00000043  0.0000157 0.0000
 25   -857.6879439199  -0.000000012948 0.00004489  0.00000061  0.0000149 0.0000
                 **** Energy Check signals convergence ****

               *****************************************************
               *                     SUCCESS                       *
               *           SCF CONVERGED AFTER  26 CYCLES          *
               *****************************************************

Old exchange energy                            =    -26.079449271 Eh
New exchange energy                            =    -26.079436429 Eh
Exchange energy change after final integration =      0.000012843 Eh
Total energy after final integration           =   -857.687931075 Eh
Final COS-X integration done in                =     9.754 sec

----------------
TOTAL SCF ENERGY
----------------

Total Energy       :         -857.68793107 Eh          -23338.87513 eV

Components:
Nuclear Repulsion  :          631.48928592 Eh           17183.69707 eV
Electronic Energy  :        -1489.17721699 Eh          -40522.57220 eV
One Electron Energy:        -2426.76682952 Eh          -66035.68262 eV
Two Electron Energy:          937.58961253 Eh           25513.11042 eV
Max COSX asymmetry :            0.00000038 Eh               0.00001 eV

Virial components:
Potential Energy   :        -1712.77247431 Eh          -46606.90848 eV
Kinetic Energy     :          855.08454323 Eh           23268.03335 eV
Virial Ratio       :            2.00304460


DFT components:
N(Alpha)           :       44.000019062616 electrons
N(Beta)            :       43.000018452359 electrons
N(Total)           :       87.000037514975 electrons
E(XC)              :      -62.723435253509 Eh       
DFET-embed. en.    :        0.000000000000 Eh       

---------------
SCF CONVERGENCE
---------------

  Last Energy change         ...    2.3863e-09  Tolerance :   1.0000e-08
  Last MAX-Density change    ...    0.0000e+00  Tolerance :   1.0000e-07
  Last RMS-Density change    ...    0.0000e+00  Tolerance :   5.0000e-09
  Last DIIS Error            ...    1.3683e-05  Tolerance :   5.0000e-07

             **** THE GBW FILE WAS UPDATED (/burg/berkelbach/users/eav2136/projects/peroxide_dissociation/05_range_separated_functional/wb97x-d-radical/wb97x-d-radical_opt.gbw) ****
             **** DENSITY /burg/berkelbach/users/eav2136/projects/peroxide_dissociation/05_range_separated_functional/wb97x-d-radical/wb97x-d-radical_opt.scfp WAS UPDATED ****
             **** ENERGY FILE WAS UPDATED (/burg/berkelbach/users/eav2136/projects/peroxide_dissociation/05_range_separated_functional/wb97x-d-radical/wb97x-d-radical_opt.en.tmp) ****
----------------------
UHF SPIN CONTAMINATION
----------------------

Warning: in a DFT calculation there is little theoretical justification to 
         calculate <S**2> as in Hartree-Fock theory. We will do it anyways
         but you should keep in mind that the values have only limited relevance

Expectation value of <S**2>     :     0.755644
Ideal value S*(S+1) for S=0.5   :     0.750000
Deviation                       :     0.005644

             **** THE GBW FILE WAS UPDATED (/burg/berkelbach/users/eav2136/projects/peroxide_dissociation/05_range_separated_functional/wb97x-d-radical/wb97x-d-radical_opt.gbw) ****
             **** DENSITY /burg/berkelbach/users/eav2136/projects/peroxide_dissociation/05_range_separated_functional/wb97x-d-radical/wb97x-d-radical_opt.scfp WAS UPDATED ****
----------------
ORBITAL ENERGIES
----------------
                 SPIN UP ORBITALS
  NO   OCC          E(Eh)            E(eV) 
   0   1.0000     -88.971735     -2421.0440 
   1   1.0000     -19.325265      -525.8672 
   2   1.0000     -19.248276      -523.7722 
   3   1.0000     -10.427521      -283.7473 
   4   1.0000     -10.342822      -281.4425 
   5   1.0000     -10.322526      -280.8902 
   6   1.0000     -10.315723      -280.7051 
   7   1.0000     -10.314395      -280.6690 
   8   1.0000     -10.310776      -280.5705 
   9   1.0000     -10.305844      -280.4363 
  10   1.0000     -10.304728      -280.4059 
  11   1.0000      -8.068816      -219.5636 
  12   1.0000      -6.022829      -163.8895 
  13   1.0000      -6.018675      -163.7765 
  14   1.0000      -6.013954      -163.6480 
  15   1.0000      -1.236701       -33.6523 
  16   1.0000      -1.137270       -30.9467 
  17   1.0000      -1.017738       -27.6941 
  18   1.0000      -0.951503       -25.8917 
  19   1.0000      -0.896204       -24.3870 
  20   1.0000      -0.888704       -24.1829 
  21   1.0000      -0.804490       -21.8913 
  22   1.0000      -0.750903       -20.4331 
  23   1.0000      -0.731816       -19.9137 
  24   1.0000      -0.691289       -18.8109 
  25   1.0000      -0.643945       -17.5226 
  26   1.0000      -0.605634       -16.4801 
  27   1.0000      -0.594807       -16.1855 
  28   1.0000      -0.581853       -15.8330 
  29   1.0000      -0.574443       -15.6314 
  30   1.0000      -0.556834       -15.1522 
  31   1.0000      -0.555041       -15.1034 
  32   1.0000      -0.550704       -14.9854 
  33   1.0000      -0.531357       -14.4590 
  34   1.0000      -0.508424       -13.8349 
  35   1.0000      -0.500798       -13.6274 
  36   1.0000      -0.477407       -12.9909 
  37   1.0000      -0.465485       -12.6665 
  38   1.0000      -0.441018       -12.0007 
  39   1.0000      -0.432968       -11.7816 
  40   1.0000      -0.415528       -11.3071 
  41   1.0000      -0.399408       -10.8684 
  42   1.0000      -0.370841       -10.0911 
  43   1.0000      -0.314828        -8.5669 
  44   0.0000       0.014172         0.3856 
  45   0.0000       0.038781         1.0553 
  46   0.0000       0.087162         2.3718 
  47   0.0000       0.101564         2.7637 
  48   0.0000       0.115427         3.1409 
  49   0.0000       0.140860         3.8330 
  50   0.0000       0.150805         4.1036 
  51   0.0000       0.159287         4.3344 
  52   0.0000       0.166551         4.5321 
  53   0.0000       0.169395         4.6095 
  54   0.0000       0.174473         4.7476 
  55   0.0000       0.195979         5.3329 
  56   0.0000       0.205548         5.5933 
  57   0.0000       0.210735         5.7344 
  58   0.0000       0.215541         5.8652 
  59   0.0000       0.239440         6.5155 
  60   0.0000       0.254801         6.9335 
  61   0.0000       0.262984         7.1561 
  62   0.0000       0.282830         7.6962 
  63   0.0000       0.284811         7.7501 
  64   0.0000       0.288556         7.8520 
  65   0.0000       0.302428         8.2295 
  66   0.0000       0.308343         8.3904 
  67   0.0000       0.312386         8.5004 
  68   0.0000       0.318042         8.6544 
  69   0.0000       0.323496         8.8028 
  70   0.0000       0.330236         8.9862 
  71   0.0000       0.354361         9.6427 
  72   0.0000       0.355835         9.6828 
  73   0.0000       0.370251        10.0750 
  74   0.0000       0.380558        10.3555 
  75   0.0000       0.390202        10.6179 
  76   0.0000       0.399510        10.8712 
  77   0.0000       0.411890        11.2081 
  78   0.0000       0.418419        11.3858 
  79   0.0000       0.420524        11.4430 
  80   0.0000       0.432659        11.7732 
  81   0.0000       0.436780        11.8854 
  82   0.0000       0.446799        12.1580 
  83   0.0000       0.460128        12.5207 
  84   0.0000       0.470867        12.8129 
  85   0.0000       0.480438        13.0734 
  86   0.0000       0.481556        13.1038 
  87   0.0000       0.491227        13.3670 
  88   0.0000       0.499312        13.5870 
  89   0.0000       0.504036        13.7155 
  90   0.0000       0.509885        13.8747 
  91   0.0000       0.520033        14.1508 
  92   0.0000       0.531491        14.4626 
  93   0.0000       0.535576        14.5738 
  94   0.0000       0.541866        14.7449 
  95   0.0000       0.550283        14.9740 
  96   0.0000       0.553947        15.0737 
  97   0.0000       0.578190        15.7333 
  98   0.0000       0.588061        16.0019 
  99   0.0000       0.601691        16.3728 
 100   0.0000       0.615311        16.7435 
 101   0.0000       0.620200        16.8765 
 102   0.0000       0.639761        17.4088 
 103   0.0000       0.645697        17.5703 
 104   0.0000       0.653060        17.7707 
 105   0.0000       0.661532        18.0012 
 106   0.0000       0.665063        18.0973 
 107   0.0000       0.690426        18.7875 
 108   0.0000       0.705122        19.1874 
 109   0.0000       0.715256        19.4631 
 110   0.0000       0.731233        19.8979 
 111   0.0000       0.738504        20.0957 
 112   0.0000       0.754070        20.5193 
 113   0.0000       0.763656        20.7801 
 114   0.0000       0.767093        20.8737 
 115   0.0000       0.783852        21.3297 
 116   0.0000       0.800718        21.7887 
 117   0.0000       0.816939        22.2300 
 118   0.0000       0.832259        22.6469 
 119   0.0000       0.841280        22.8924 
 120   0.0000       0.845815        23.0158 
 121   0.0000       0.857026        23.3209 
 122   0.0000       0.869536        23.6613 
 123   0.0000       0.892468        24.2853 
 124   0.0000       0.911404        24.8006 
 125   0.0000       0.920864        25.0580 
 126   0.0000       0.926881        25.2217 
 127   0.0000       0.928286        25.2599 
 128   0.0000       0.957102        26.0441 
 129   0.0000       0.980881        26.6911 
 130   0.0000       0.989269        26.9194 
 131   0.0000       1.002481        27.2789 
 132   0.0000       1.016278        27.6543 
 133   0.0000       1.024755        27.8850 
 134   0.0000       1.037816        28.2404 
 135   0.0000       1.041284        28.3348 
 136   0.0000       1.064402        28.9638 
 137   0.0000       1.076992        29.3064 
 138   0.0000       1.094700        29.7883 
 139   0.0000       1.108544        30.1650 
 140   0.0000       1.117343        30.4044 
 141   0.0000       1.152292        31.3554 
 142   0.0000       1.203041        32.7364 
 143   0.0000       1.221728        33.2449 
 144   0.0000       1.233307        33.5600 
 145   0.0000       1.247008        33.9328 
 146   0.0000       1.278766        34.7970 
 147   0.0000       1.291030        35.1307 
 148   0.0000       1.308879        35.6164 
 149   0.0000       1.316119        35.8134 
 150   0.0000       1.329512        36.1779 
 151   0.0000       1.334708        36.3193 
 152   0.0000       1.370515        37.2936 
 153   0.0000       1.376412        37.4541 
 154   0.0000       1.405427        38.2436 
 155   0.0000       1.419668        38.6311 
 156   0.0000       1.433452        39.0062 
 157   0.0000       1.444433        39.3050 
 158   0.0000       1.498533        40.7772 
 159   0.0000       1.516325        41.2613 
 160   0.0000       1.531726        41.6804 
 161   0.0000       1.552994        42.2591 
 162   0.0000       1.561292        42.4849 
 163   0.0000       1.566164        42.6175 
 164   0.0000       1.577455        42.9247 
 165   0.0000       1.587869        43.2081 
 166   0.0000       1.588738        43.2318 
 167   0.0000       1.592704        43.3397 
 168   0.0000       1.603668        43.6380 
 169   0.0000       1.624289        44.1991 
 170   0.0000       1.627846        44.2959 
 171   0.0000       1.631535        44.3963 
 172   0.0000       1.640145        44.6306 
 173   0.0000       1.659238        45.1502 
 174   0.0000       1.671132        45.4738 
 175   0.0000       1.679019        45.6884 
 176   0.0000       1.686604        45.8948 
 177   0.0000       1.701142        46.2904 
 178   0.0000       1.728231        47.0276 
 179   0.0000       1.742300        47.4104 
 180   0.0000       1.756473        47.7960 
 181   0.0000       1.762677        47.9649 
 182   0.0000       1.769369        48.1470 
 183   0.0000       1.778972        48.4083 
 184   0.0000       1.799471        48.9661 
 185   0.0000       1.811521        49.2940 
 186   0.0000       1.848295        50.2947 
 187   0.0000       1.862546        50.6825 
 188   0.0000       1.886480        51.3337 
 189   0.0000       1.901096        51.7314 
 190   0.0000       1.915016        52.1102 
 191   0.0000       1.920578        52.2616 
 192   0.0000       1.930042        52.5191 
 193   0.0000       1.937873        52.7322 
 194   0.0000       1.947535        52.9951 
 195   0.0000       1.956944        53.2512 
 196   0.0000       1.968628        53.5691 
 197   0.0000       1.990183        54.1556 
 198   0.0000       1.997376        54.3514 
 199   0.0000       2.037025        55.4303 
 200   0.0000       2.049429        55.7678 
 201   0.0000       2.093552        56.9685 
 202   0.0000       2.108973        57.3881 
 203   0.0000       2.129988        57.9599 
 204   0.0000       2.140302        58.2406 
 205   0.0000       2.151249        58.5385 
 206   0.0000       2.163564        58.8736 
 207   0.0000       2.172490        59.1164 
 208   0.0000       2.182487        59.3885 
 209   0.0000       2.214049        60.2473 
 210   0.0000       2.225702        60.5644 
 211   0.0000       2.245977        61.1161 
 212   0.0000       2.255369        61.3717 
 213   0.0000       2.267455        61.7006 
 214   0.0000       2.292005        62.3686 
 215   0.0000       2.312186        62.9178 
 216   0.0000       2.318396        63.0868 
 217   0.0000       2.342401        63.7400 
 218   0.0000       2.357519        64.1514 
 219   0.0000       2.378948        64.7345 
 220   0.0000       2.412170        65.6385 
 221   0.0000       2.431777        66.1720 
 222   0.0000       2.441526        66.4373 
 223   0.0000       2.482976        67.5652 
 224   0.0000       2.486378        67.6578 
 225   0.0000       2.501606        68.0722 
 226   0.0000       2.528025        68.7911 
 227   0.0000       2.599577        70.7381 
 228   0.0000       2.611290        71.0568 
 229   0.0000       2.618953        71.2653 
 230   0.0000       2.647323        72.0373 
 231   0.0000       2.662717        72.4562 
 232   0.0000       2.666668        72.5637 
 233   0.0000       2.684629        73.0525 
 234   0.0000       2.695091        73.3372 
 235   0.0000       2.715203        73.8844 
 236   0.0000       2.719812        74.0098 
 237   0.0000       2.733055        74.3702 
 238   0.0000       2.765006        75.2397 
 239   0.0000       2.766625        75.2837 
 240   0.0000       2.777568        75.5815 
 241   0.0000       2.794748        76.0490 
 242   0.0000       2.818071        76.6836 
 243   0.0000       2.829035        76.9819 
 244   0.0000       2.832517        77.0767 
 245   0.0000       2.838693        77.2448 
 246   0.0000       2.860910        77.8493 
 247   0.0000       2.880155        78.3730 
 248   0.0000       2.891806        78.6900 
 249   0.0000       2.912626        79.2566 
 250   0.0000       2.922019        79.5122 
 251   0.0000       2.944278        80.1179 
 252   0.0000       2.959315        80.5271 
 253   0.0000       2.976821        81.0034 
 254   0.0000       2.987530        81.2948 
 255   0.0000       3.006199        81.8028 
 256   0.0000       3.025889        82.3386 
 257   0.0000       3.030445        82.4626 
 258   0.0000       3.048418        82.9517 
 259   0.0000       3.053897        83.1008 
 260   0.0000       3.074749        83.6682 
 261   0.0000       3.088208        84.0344 
 262   0.0000       3.098916        84.3258 
 263   0.0000       3.113827        84.7315 
 264   0.0000       3.122663        84.9720 
 265   0.0000       3.129812        85.1665 
 266   0.0000       3.156670        85.8974 
 267   0.0000       3.187309        86.7311 
 268   0.0000       3.200256        87.0834 
 269   0.0000       3.207132        87.2705 
 270   0.0000       3.220365        87.6306 
 271   0.0000       3.228896        87.8627 
 272   0.0000       3.237929        88.1085 
 273   0.0000       3.254021        88.5464 
 274   0.0000       3.262850        88.7867 
 275   0.0000       3.285467        89.4021 
 276   0.0000       3.296731        89.7086 
 277   0.0000       3.323308        90.4318 
 278   0.0000       3.342635        90.9577 
 279   0.0000       3.348628        91.1208 
 280   0.0000       3.363383        91.5223 
 281   0.0000       3.378113        91.9231 
 282   0.0000       3.395570        92.3982 
 283   0.0000       3.410759        92.8115 
 284   0.0000       3.426862        93.2496 
 285   0.0000       3.432575        93.4051 
 286   0.0000       3.440246        93.6138 
 287   0.0000       3.456578        94.0583 
 288   0.0000       3.463310        94.2415 
 289   0.0000       3.471158        94.4550 
 290   0.0000       3.478111        94.6442 
 291   0.0000       3.500882        95.2638 
 292   0.0000       3.506780        95.4243 
 293   0.0000       3.543887        96.4341 
 294   0.0000       3.547520        96.5329 
 295   0.0000       3.564837        97.0041 
 296   0.0000       3.571261        97.1790 
 297   0.0000       3.576922        97.3330 
 298   0.0000       3.591488        97.7293 
 299   0.0000       3.618931        98.4761 
 300   0.0000       3.626555        98.6836 
 301   0.0000       3.628405        98.7339 
 302   0.0000       3.653077        99.4053 
 303   0.0000       3.674591        99.9907 
 304   0.0000       3.721993       101.2806 
 305   0.0000       3.738354       101.7258 
 306   0.0000       3.754475       102.1645 
 307   0.0000       3.790819       103.1534 
 308   0.0000       3.819862       103.9437 
 309   0.0000       3.860184       105.0409 
 310   0.0000       3.869077       105.2829 
 311   0.0000       3.909645       106.3868 
 312   0.0000       3.934946       107.0753 
 313   0.0000       3.983424       108.3945 
 314   0.0000       3.992824       108.6503 
 315   0.0000       4.016748       109.3013 
 316   0.0000       4.053308       110.2961 
 317   0.0000       4.112128       111.8967 
 318   0.0000       4.142666       112.7277 
 319   0.0000       4.196600       114.1953 
 320   0.0000       4.244256       115.4921 
 321   0.0000       4.257863       115.8624 
 322   0.0000       4.271056       116.2213 
 323   0.0000       4.278867       116.4339 
 324   0.0000       4.287047       116.6565 
 325   0.0000       4.314364       117.3998 
 326   0.0000       4.333531       117.9214 
 327   0.0000       4.349396       118.3531 
 328   0.0000       4.362624       118.7130 
 329   0.0000       4.390147       119.4620 
 330   0.0000       4.419606       120.2636 
 331   0.0000       4.450557       121.1058 
 332   0.0000       4.490404       122.1901 
 333   0.0000       4.523422       123.0886 
 334   0.0000       4.562127       124.1418 
 335   0.0000       4.594393       125.0198 
 336   0.0000       4.637494       126.1926 
 337   0.0000       4.736983       128.8999 
 338   0.0000       4.744024       129.0915 
 339   0.0000       4.768425       129.7554 
 340   0.0000       4.785204       130.2120 
 341   0.0000       4.950281       134.7040 
 342   0.0000       5.010469       136.3418 
 343   0.0000       5.027431       136.8034 
 344   0.0000       5.062374       137.7542 
 345   0.0000       5.166203       140.5795 
 346   0.0000       5.167908       140.6259 
 347   0.0000       5.213238       141.8594 
 348   0.0000       5.226455       142.2191 
 349   0.0000       5.262282       143.1940 
 350   0.0000       5.281600       143.7196 
 351   0.0000       5.308890       144.4622 
 352   0.0000       5.413994       147.3223 
 353   0.0000       5.444614       148.1555 
 354   0.0000       5.525940       150.3685 
 355   0.0000       5.558644       151.2584 
 356   0.0000       5.602458       152.4506 
 357   0.0000       5.658873       153.9858 
 358   0.0000       5.708707       155.3418 
 359   0.0000       5.806508       158.0031 
 360   0.0000       5.929425       161.3478 
 361   0.0000       6.120936       166.5591 
 362   0.0000       6.263814       170.4470 
 363   0.0000       6.351039       172.8205 
 364   0.0000       6.432942       175.0492 
 365   0.0000       6.467307       175.9844 
 366   0.0000       6.490049       176.6032 
 367   0.0000       6.595973       179.4855 
 368   0.0000       6.776527       184.3987 
 369   0.0000       6.787354       184.6933 
 370   0.0000       6.908238       187.9827 
 371   0.0000       6.927168       188.4978 
 372   0.0000       7.075926       192.5457 
 373   0.0000       7.181167       195.4095 
 374   0.0000       7.200063       195.9237 
 375   0.0000       8.993736       244.7320 
 376   0.0000       9.445664       257.0296 
 377   0.0000       9.613093       261.5856 
 378   0.0000      20.171040       548.8819 
 379   0.0000      22.047009       599.9296 
 380   0.0000      22.280008       606.2699 
 381   0.0000      22.763748       619.4331 
 382   0.0000      22.775947       619.7650 
 383   0.0000      22.827158       621.1586 
 384   0.0000      22.907878       623.3551 
 385   0.0000      23.266079       633.1022 
 386   0.0000      23.408244       636.9707 
 387   0.0000      43.697420      1189.0672 
 388   0.0000      43.915604      1195.0043 

                 SPIN DOWN ORBITALS
  NO   OCC          E(Eh)            E(eV) 
   0   1.0000     -88.971701     -2421.0431 
   1   1.0000     -19.306403      -525.3539 
   2   1.0000     -19.245242      -523.6896 
   3   1.0000     -10.428143      -283.7642 
   4   1.0000     -10.342663      -281.4382 
   5   1.0000     -10.322529      -280.8903 
   6   1.0000     -10.315684      -280.7040 
   7   1.0000     -10.314238      -280.6647 
   8   1.0000     -10.310636      -280.5667 
   9   1.0000     -10.305943      -280.4390 
  10   1.0000     -10.304770      -280.4070 
  11   1.0000      -8.068786      -219.5628 
  12   1.0000      -6.022811      -163.8890 
  13   1.0000      -6.018658      -163.7760 
  14   1.0000      -6.013842      -163.6450 
  15   1.0000      -1.216645       -33.1066 
  16   1.0000      -1.088166       -29.6105 
  17   1.0000      -1.017023       -27.6746 
  18   1.0000      -0.950610       -25.8674 
  19   1.0000      -0.895795       -24.3758 
  20   1.0000      -0.887699       -24.1555 
  21   1.0000      -0.802880       -21.8475 
  22   1.0000      -0.750421       -20.4200 
  23   1.0000      -0.728758       -19.8305 
  24   1.0000      -0.687933       -18.7196 
  25   1.0000      -0.621529       -16.9127 
  26   1.0000      -0.603914       -16.4333 
  27   1.0000      -0.584267       -15.8987 
  28   1.0000      -0.573300       -15.6003 
  29   1.0000      -0.568353       -15.4657 
  30   1.0000      -0.556025       -15.1302 
  31   1.0000      -0.549803       -14.9609 
  32   1.0000      -0.545883       -14.8542 
  33   1.0000      -0.524672       -14.2770 
  34   1.0000      -0.505488       -13.7550 
  35   1.0000      -0.485357       -13.2072 
  36   1.0000      -0.465222       -12.6593 
  37   1.0000      -0.433317       -11.7911 
  38   1.0000      -0.420566       -11.4442 
  39   1.0000      -0.408763       -11.1230 
  40   1.0000      -0.390031       -10.6133 
  41   1.0000      -0.369928       -10.0663 
  42   1.0000      -0.315226        -8.5777 
  43   0.0000      -0.095312        -2.5936 
  44   0.0000       0.017446         0.4747 
  45   0.0000       0.039809         1.0833 
  46   0.0000       0.087367         2.3774 
  47   0.0000       0.103165         2.8073 
  48   0.0000       0.115639         3.1467 
  49   0.0000       0.140974         3.8361 
  50   0.0000       0.150989         4.1086 
  51   0.0000       0.159960         4.3527 
  52   0.0000       0.166610         4.5337 
  53   0.0000       0.169526         4.6130 
  54   0.0000       0.175127         4.7654 
  55   0.0000       0.196637         5.3508 
  56   0.0000       0.206191         5.6107 
  57   0.0000       0.211116         5.7447 
  58   0.0000       0.217039         5.9059 
  59   0.0000       0.240118         6.5339 
  60   0.0000       0.257302         7.0016 
  61   0.0000       0.263696         7.1755 
  62   0.0000       0.283943         7.7265 
  63   0.0000       0.285193         7.7605 
  64   0.0000       0.288780         7.8581 
  65   0.0000       0.305437         8.3114 
  66   0.0000       0.309397         8.4191 
  67   0.0000       0.314443         8.5564 
  68   0.0000       0.319112         8.6835 
  69   0.0000       0.324532         8.8310 
  70   0.0000       0.332045         9.0354 
  71   0.0000       0.354828         9.6554 
  72   0.0000       0.356545         9.7021 
  73   0.0000       0.371119        10.0987 
  74   0.0000       0.381618        10.3843 
  75   0.0000       0.390409        10.6236 
  76   0.0000       0.400794        10.9062 
  77   0.0000       0.412759        11.2317 
  78   0.0000       0.419486        11.4148 
  79   0.0000       0.421091        11.4585 
  80   0.0000       0.433430        11.7942 
  81   0.0000       0.439131        11.9494 
  82   0.0000       0.447632        12.1807 
  83   0.0000       0.461068        12.5463 
  84   0.0000       0.471323        12.8253 
  85   0.0000       0.480993        13.0885 
  86   0.0000       0.482404        13.1269 
  87   0.0000       0.492460        13.4005 
  88   0.0000       0.499729        13.5983 
  89   0.0000       0.504567        13.7300 
  90   0.0000       0.510153        13.8820 
  91   0.0000       0.520660        14.1679 
  92   0.0000       0.533830        14.5263 
  93   0.0000       0.536881        14.6093 
  94   0.0000       0.542384        14.7590 
  95   0.0000       0.552743        15.0409 
  96   0.0000       0.554397        15.0859 
  97   0.0000       0.581997        15.8369 
  98   0.0000       0.589262        16.0346 
  99   0.0000       0.602697        16.4002 
 100   0.0000       0.618128        16.8201 
 101   0.0000       0.625236        17.0135 
 102   0.0000       0.643519        17.5110 
 103   0.0000       0.649536        17.6748 
 104   0.0000       0.655229        17.8297 
 105   0.0000       0.662913        18.0388 
 106   0.0000       0.669360        18.2142 
 107   0.0000       0.691424        18.8146 
 108   0.0000       0.705889        19.2082 
 109   0.0000       0.716097        19.4860 
 110   0.0000       0.733912        19.9708 
 111   0.0000       0.740728        20.1562 
 112   0.0000       0.757198        20.6044 
 113   0.0000       0.764560        20.8047 
 114   0.0000       0.768779        20.9195 
 115   0.0000       0.785049        21.3623 
 116   0.0000       0.801054        21.7978 
 117   0.0000       0.817486        22.2449 
 118   0.0000       0.833898        22.6915 
 119   0.0000       0.842027        22.9127 
 120   0.0000       0.846336        23.0300 
 121   0.0000       0.859672        23.3929 
 122   0.0000       0.869648        23.6643 
 123   0.0000       0.893755        24.3203 
 124   0.0000       0.912376        24.8270 
 125   0.0000       0.922607        25.1054 
 126   0.0000       0.927719        25.2445 
 127   0.0000       0.929048        25.2807 
 128   0.0000       0.957786        26.0627 
 129   0.0000       0.982170        26.7262 
 130   0.0000       0.989618        26.9289 
 131   0.0000       1.003657        27.3109 
 132   0.0000       1.019009        27.7286 
 133   0.0000       1.025751        27.9121 
 134   0.0000       1.038362        28.2553 
 135   0.0000       1.043923        28.4066 
 136   0.0000       1.065776        29.0012 
 137   0.0000       1.078674        29.3522 
 138   0.0000       1.095765        29.8173 
 139   0.0000       1.108737        30.1703 
 140   0.0000       1.117764        30.4159 
 141   0.0000       1.153545        31.3895 
 142   0.0000       1.204010        32.7628 
 143   0.0000       1.223088        33.2819 
 144   0.0000       1.233759        33.5723 
 145   0.0000       1.250797        34.0359 
 146   0.0000       1.280628        34.8477 
 147   0.0000       1.291565        35.1453 
 148   0.0000       1.310027        35.6477 
 149   0.0000       1.316701        35.8292 
 150   0.0000       1.330602        36.2075 
 151   0.0000       1.336033        36.3553 
 152   0.0000       1.371880        37.3308 
 153   0.0000       1.379632        37.5417 
 154   0.0000       1.407729        38.3062 
 155   0.0000       1.422307        38.7029 
 156   0.0000       1.435168        39.0529 
 157   0.0000       1.451123        39.4871 
 158   0.0000       1.503915        40.9236 
 159   0.0000       1.516976        41.2790 
 160   0.0000       1.532045        41.6891 
 161   0.0000       1.553977        42.2859 
 162   0.0000       1.563151        42.5355 
 163   0.0000       1.568324        42.6763 
 164   0.0000       1.577734        42.9323 
 165   0.0000       1.589114        43.2420 
 166   0.0000       1.589879        43.2628 
 167   0.0000       1.596120        43.4326 
 168   0.0000       1.605395        43.6850 
 169   0.0000       1.624912        44.2161 
 170   0.0000       1.630645        44.3721 
 171   0.0000       1.639392        44.6101 
 172   0.0000       1.642282        44.6888 
 173   0.0000       1.663384        45.2630 
 174   0.0000       1.672580        45.5132 
 175   0.0000       1.681730        45.7622 
 176   0.0000       1.692781        46.0629 
 177   0.0000       1.702206        46.3194 
 178   0.0000       1.730100        47.0784 
 179   0.0000       1.744136        47.4604 
 180   0.0000       1.757183        47.8154 
 181   0.0000       1.762918        47.9714 
 182   0.0000       1.771916        48.2163 
 183   0.0000       1.781108        48.4664 
 184   0.0000       1.800151        48.9846 
 185   0.0000       1.816320        49.4246 
 186   0.0000       1.852550        50.4104 
 187   0.0000       1.867571        50.8192 
 188   0.0000       1.888085        51.3774 
 189   0.0000       1.901557        51.7440 
 190   0.0000       1.915781        52.1311 
 191   0.0000       1.922082        52.3025 
 192   0.0000       1.930679        52.5364 
 193   0.0000       1.939505        52.7766 
 194   0.0000       1.948303        53.0160 
 195   0.0000       1.957745        53.2729 
 196   0.0000       1.980630        53.8957 
 197   0.0000       1.994735        54.2795 
 198   0.0000       1.997808        54.3631 
 199   0.0000       2.044235        55.6265 
 200   0.0000       2.050229        55.7896 
 201   0.0000       2.097351        57.0718 
 202   0.0000       2.113406        57.5087 
 203   0.0000       2.137077        58.1528 
 204   0.0000       2.143154        58.3182 
 205   0.0000       2.152211        58.5646 
 206   0.0000       2.168958        59.0204 
 207   0.0000       2.173968        59.1567 
 208   0.0000       2.183127        59.4059 
 209   0.0000       2.215705        60.2924 
 210   0.0000       2.235210        60.8232 
 211   0.0000       2.247083        61.1462 
 212   0.0000       2.256420        61.4003 
 213   0.0000       2.268143        61.7193 
 214   0.0000       2.293129        62.3992 
 215   0.0000       2.312719        62.9323 
 216   0.0000       2.319823        63.1256 
 217   0.0000       2.344338        63.7927 
 218   0.0000       2.373578        64.5883 
 219   0.0000       2.379959        64.7620 
 220   0.0000       2.414362        65.6981 
 221   0.0000       2.434898        66.2569 
 222   0.0000       2.443477        66.4904 
 223   0.0000       2.485634        67.6375 
 224   0.0000       2.487832        67.6974 
 225   0.0000       2.503547        68.1250 
 226   0.0000       2.531903        68.8966 
 227   0.0000       2.602259        70.8111 
 228   0.0000       2.611851        71.0721 
 229   0.0000       2.619247        71.2733 
 230   0.0000       2.648598        72.0720 
 231   0.0000       2.665677        72.5367 
 232   0.0000       2.669324        72.6360 
 233   0.0000       2.685453        73.0749 
 234   0.0000       2.696498        73.3755 
 235   0.0000       2.716571        73.9216 
 236   0.0000       2.725227        74.1572 
 237   0.0000       2.749634        74.8213 
 238   0.0000       2.767824        75.3163 
 239   0.0000       2.768659        75.3391 
 240   0.0000       2.779394        75.6311 
 241   0.0000       2.795311        76.0643 
 242   0.0000       2.820051        76.7375 
 243   0.0000       2.830515        77.0222 
 244   0.0000       2.834009        77.1173 
 245   0.0000       2.839975        77.2796 
 246   0.0000       2.862267        77.8862 
 247   0.0000       2.881036        78.3970 
 248   0.0000       2.892262        78.7025 
 249   0.0000       2.912732        79.2595 
 250   0.0000       2.922665        79.5297 
 251   0.0000       2.945267        80.1448 
 252   0.0000       2.959952        80.5444 
 253   0.0000       2.982182        81.1493 
 254   0.0000       2.988952        81.3335 
 255   0.0000       3.008360        81.8616 
 256   0.0000       3.029593        82.4394 
 257   0.0000       3.031066        82.4795 
 258   0.0000       3.049688        82.9862 
 259   0.0000       3.057890        83.2094 
 260   0.0000       3.076179        83.7071 
 261   0.0000       3.091877        84.1343 
 262   0.0000       3.100229        84.3615 
 263   0.0000       3.114735        84.7563 
 264   0.0000       3.123541        84.9959 
 265   0.0000       3.129888        85.1686 
 266   0.0000       3.157221        85.9124 
 267   0.0000       3.188200        86.7553 
 268   0.0000       3.203739        87.1782 
 269   0.0000       3.208897        87.3185 
 270   0.0000       3.223767        87.7232 
 271   0.0000       3.231606        87.9365 
 272   0.0000       3.238482        88.1236 
 273   0.0000       3.255814        88.5952 
 274   0.0000       3.266620        88.8892 
 275   0.0000       3.288809        89.4930 
 276   0.0000       3.307696        90.0070 
 277   0.0000       3.325106        90.4807 
 278   0.0000       3.344161        90.9992 
 279   0.0000       3.351939        91.2109 
 280   0.0000       3.368004        91.6480 
 281   0.0000       3.378854        91.9433 
 282   0.0000       3.397405        92.4481 
 283   0.0000       3.412706        92.8644 
 284   0.0000       3.429080        93.3100 
 285   0.0000       3.436409        93.5094 
 286   0.0000       3.441432        93.6461 
 287   0.0000       3.458101        94.0997 
 288   0.0000       3.464146        94.2642 
 289   0.0000       3.471741        94.4709 
 290   0.0000       3.484678        94.8229 
 291   0.0000       3.502033        95.2952 
 292   0.0000       3.510552        95.5270 
 293   0.0000       3.544572        96.4527 
 294   0.0000       3.548737        96.5660 
 295   0.0000       3.566364        97.0457 
 296   0.0000       3.572107        97.2020 
 297   0.0000       3.578743        97.3826 
 298   0.0000       3.592318        97.7519 
 299   0.0000       3.619567        98.4934 
 300   0.0000       3.628409        98.7340 
 301   0.0000       3.629661        98.7681 
 302   0.0000       3.653357        99.4129 
 303   0.0000       3.675388       100.0124 
 304   0.0000       3.722570       101.2963 
 305   0.0000       3.738965       101.7424 
 306   0.0000       3.754674       102.1699 
 307   0.0000       3.791592       103.1745 
 308   0.0000       3.821271       103.9821 
 309   0.0000       3.862576       105.1060 
 310   0.0000       3.870801       105.3299 
 311   0.0000       3.910469       106.4093 
 312   0.0000       3.935758       107.0974 
 313   0.0000       3.984494       108.4236 
 314   0.0000       3.994253       108.6892 
 315   0.0000       4.018176       109.3401 
 316   0.0000       4.054837       110.3377 
 317   0.0000       4.112483       111.9063 
 318   0.0000       4.143397       112.7476 
 319   0.0000       4.197253       114.2131 
 320   0.0000       4.244734       115.5051 
 321   0.0000       4.258778       115.8872 
 322   0.0000       4.271586       116.2358 
 323   0.0000       4.280713       116.4841 
 324   0.0000       4.287449       116.6674 
 325   0.0000       4.315211       117.4229 
 326   0.0000       4.334286       117.9419 
 327   0.0000       4.350017       118.3700 
 328   0.0000       4.363918       118.7483 
 329   0.0000       4.390663       119.4760 
 330   0.0000       4.420470       120.2871 
 331   0.0000       4.451407       121.1289 
 332   0.0000       4.490562       122.1944 
[...]
      pz      :     0.953758  p :     2.963576
      px      :     0.997927
      py      :     1.011891
      dz2     :     0.038400  d :     0.380858
      dxz     :     0.080323
      dyz     :     0.055505
      dx2y2   :     0.095692
      dxy     :     0.110939
      f0      :     0.004825  f :     0.043607
      f+1     :     0.002424
      f-1     :     0.005929
      f+2     :     0.005848
      f-2     :     0.007239
      f+3     :     0.010989
      f-3     :     0.006353
  4 C s       :     2.751788  s :     2.751788
      pz      :     0.918875  p :     2.884069
      px      :     0.986016
      py      :     0.979178
      dz2     :     0.083863  d :     0.392646
      dxz     :     0.051211
      dyz     :     0.064003
      dx2y2   :     0.083194
      dxy     :     0.110376
      f0      :     0.003341  f :     0.044655
      f+1     :     0.006200
      f-1     :     0.005888
      f+2     :     0.007098
      f-2     :     0.007357
      f+3     :     0.008145
      f-3     :     0.006627
  5 C s       :     2.699621  s :     2.699621
      pz      :     0.929696  p :     2.903326
      px      :     1.028592
      py      :     0.945038
      dz2     :     0.058081  d :     0.488144
      dxz     :     0.096561
      dyz     :     0.078494
      dx2y2   :     0.140626
      dxy     :     0.114381
      f0      :     0.006003  f :     0.056509
      f+1     :     0.005851
      f-1     :     0.005246
      f+2     :     0.008067
      f-2     :     0.009523
      f+3     :     0.014560
      f-3     :     0.007258
  6 C s       :     2.751666  s :     2.751666
      pz      :     0.907334  p :     2.887996
      px      :     0.992541
      py      :     0.988120
      dz2     :     0.040473  d :     0.391108
      dxz     :     0.083949
      dyz     :     0.059524
      dx2y2   :     0.099614
      dxy     :     0.107547
      f0      :     0.005124  f :     0.044723
      f+1     :     0.002354
      f-1     :     0.006321
      f+2     :     0.005930
      f-2     :     0.007369
      f+3     :     0.011345
      f-3     :     0.006281
  7 C s       :     2.757348  s :     2.757348
      pz      :     0.963221  p :     2.954193
      px      :     0.983634
      py      :     1.007338
      dz2     :     0.070893  d :     0.383030
      dxz     :     0.053226
      dyz     :     0.066139
      dx2y2   :     0.082014
      dxy     :     0.110758
      f0      :     0.003468  f :     0.043725
      f+1     :     0.005407
      f-1     :     0.005887
      f+2     :     0.007275
      f-2     :     0.007504
      f+3     :     0.008071
      f-3     :     0.006113
  8 C s       :     2.751465  s :     2.751465
      pz      :     0.796651  p :     2.616780
      px      :     0.896242
      py      :     0.923887
      dz2     :     0.137358  d :     0.993357
      dxz     :     0.212627
      dyz     :     0.128184
      dx2y2   :     0.276211
      dxy     :     0.238977
      f0      :     0.016810  f :     0.155800
      f+1     :     0.022282
      f-1     :     0.011107
      f+2     :     0.014956
      f-2     :     0.028216
      f+3     :     0.038232
      f-3     :     0.024197
  9 O s       :     3.442649  s :     3.442649
      pz      :     1.448721  p :     4.286636
      px      :     1.369022
      py      :     1.468893
      dz2     :     0.008061  d :     0.064203
      dxz     :     0.011496
      dyz     :     0.004087
      dx2y2   :     0.018007
      dxy     :     0.022553
      f0      :     0.000521  f :     0.005534
      f+1     :     0.000726
      f-1     :     0.000301
      f+2     :     0.000209
      f-2     :     0.000731
      f+3     :     0.001551
      f-3     :     0.001496
 10 O s       :     3.443412  s :     3.443412
      pz      :     1.512684  p :     4.283414
      px      :     1.323191
      py      :     1.447539
      dz2     :     0.008693  d :     0.064144
      dxz     :     0.017401
      dyz     :     0.009535
      dx2y2   :     0.013921
      dxy     :     0.014592
      f0      :     0.000483  f :     0.005523
      f+1     :     0.000824
      f-1     :     0.000302
      f+2     :     0.001084
      f-2     :     0.001167
      f+3     :     0.000910
      f-3     :     0.000752
 11 H s       :     0.814776  s :     0.814776
      pz      :     0.020641  p :     0.064554
      px      :     0.013381
      py      :     0.030532
 12 H s       :     0.823078  s :     0.823078
      pz      :     0.023618  p :     0.064955
      px      :     0.013631
      py      :     0.027707
 13 H s       :     0.824121  s :     0.824121
      pz      :     0.022430  p :     0.064958
      px      :     0.028190
      py      :     0.014339
 14 H s       :     0.790460  s :     0.790460
      pz      :     0.020289  p :     0.060762
      px      :     0.025511
      py      :     0.014962
 15 H s       :     0.780507  s :     0.780507
      pz      :     0.011645  p :     0.059350
      px      :     0.030154
      py      :     0.017551
 16 H s       :     0.780156  s :     0.780156
      pz      :     0.019344  p :     0.059386
      px      :     0.025272
      py      :     0.014769
 17 H s       :     0.789932  s :     0.789932
      pz      :     0.012335  p :     0.059220
      px      :     0.029951
      py      :     0.016934

SPIN
  0 C s       :     0.000010  s :     0.000010
      pz      :     0.000021  p :     0.000058
      px      :     0.000028
      py      :     0.000009
      dz2     :    -0.000013  d :    -0.000103
      dxz     :    -0.000042
      dyz     :    -0.000008
      dx2y2   :    -0.000021
      dxy     :    -0.000019
      f0      :    -0.000000  f :    -0.000005
      f+1     :    -0.000004
      f-1     :    -0.000000
      f+2     :    -0.000000
      f-2     :    -0.000000
      f+3     :    -0.000000
      f-3     :    -0.000001
  1 S s       :    -0.000018  s :    -0.000018
      pz      :    -0.000607  p :    -0.000973
      px      :    -0.000113
      py      :    -0.000253
      dz2     :    -0.000091  d :    -0.000234
      dxz     :    -0.000022
      dyz     :    -0.000052
      dx2y2   :    -0.000076
      dxy     :     0.000008
      f0      :    -0.000000  f :    -0.000033
      f+1     :    -0.000001
      f-1     :    -0.000022
      f+2     :     0.000000
      f-2     :    -0.000005
      f+3     :     0.000001
      f-3     :    -0.000007
  2 C s       :    -0.000121  s :    -0.000121
      pz      :    -0.001755  p :    -0.002956
      px      :    -0.000291
      py      :    -0.000909
      dz2     :     0.000115  d :     0.000432
      dxz     :     0.000112
      dyz     :     0.000031
      dx2y2   :     0.000067
      dxy     :     0.000106
      f0      :     0.000008  f :     0.000066
      f+1     :     0.000014
      f-1     :     0.000001
      f+2     :     0.000008
      f-2     :     0.000013
      f+3     :     0.000018
      f-3     :     0.000004
  3 C s       :     0.000179  s :     0.000179
      pz      :     0.001115  p :     0.002157
      px      :     0.000249
      py      :     0.000794
      dz2     :    -0.000160  d :    -0.000748
      dxz     :    -0.000201
      dyz     :    -0.000087
      dx2y2   :    -0.000219
      dxy     :    -0.000081
      f0      :    -0.000017  f :    -0.000094
      f+1     :    -0.000002
      f-1     :    -0.000025
      f+2     :    -0.000007
      f-2     :    -0.000011
      f+3     :    -0.000024
      f-3     :    -0.000009
  4 C s       :     0.000806  s :     0.000806
      pz      :    -0.001249  p :    -0.000761
      px      :    -0.000295
      py      :     0.000782
      dz2     :     0.000227  d :     0.000747
      dxz     :     0.000008
      dyz     :     0.000308
      dx2y2   :     0.000316
      dxy     :    -0.000113
      f0      :     0.000003  f :     0.000021
      f+1     :     0.000017
      f-1     :     0.000011
      f+2     :     0.000007
      f-2     :    -0.000011
      f+3     :    -0.000016
      f-3     :     0.000009
  5 C s       :    -0.000930  s :    -0.000930
      pz      :     0.001138  p :     0.002557
      px      :     0.002011
      py      :    -0.000592
      dz2     :    -0.000904  d :    -0.001786
      dxz     :    -0.000059
      dyz     :    -0.000670
      dx2y2   :    -0.000411
      dxy     :     0.000259
      f0      :    -0.000015  f :     0.000175
      f+1     :    -0.000029
      f-1     :    -0.000073
      f+2     :     0.000025
      f-2     :     0.000110
      f+3     :     0.000201
      f-3     :    -0.000044
  6 C s       :     0.000819  s :     0.000819
      pz      :    -0.000988  p :    -0.000339
      px      :    -0.000401
      py      :     0.001050
      dz2     :     0.000046  d :     0.000763
      dxz     :     0.000078
      dyz     :     0.000370
      dx2y2   :     0.000403
      dxy     :    -0.000134
      f0      :     0.000009  f :     0.000021
      f+1     :     0.000001
      f-1     :     0.000007
      f+2     :    -0.000002
      f-2     :     0.000005
      f+3     :    -0.000003
      f-3     :     0.000004
  7 C s       :     0.000181  s :     0.000181
      pz      :     0.001120  p :     0.002170
      px      :     0.000243
      py      :     0.000807
      dz2     :    -0.000391  d :    -0.000668
      dxz     :    -0.000048
      dyz     :     0.000018
      dx2y2   :    -0.000052
      dxy     :    -0.000195
      f0      :    -0.000002  f :    -0.000090
      f+1     :    -0.000029
      f-1     :    -0.000019
      f+2     :    -0.000006
      f-2     :    -0.000005
      f+3     :    -0.000006
      f-3     :    -0.000021
  8 C s       :    -0.005845  s :    -0.005845
      pz      :    -0.015895  p :    -0.030439
      px      :     0.000514
      py      :    -0.015059
      dz2     :     0.002024  d :     0.017229
      dxz     :     0.003100
      dyz     :     0.000876
      dx2y2   :    -0.010336
      dxy     :     0.021566
      f0      :     0.001544  f :     0.041671
      f+1     :     0.001114
      f-1     :     0.002467
      f+2     :     0.004736
      f-2     :     0.009930
      f+3     :     0.021595
      f-3     :     0.000285
  9 O s       :     0.006169  s :     0.006169
      pz      :     0.149900  p :     0.477171
      px      :     0.208663
      py      :     0.118609
      dz2     :    -0.000177  d :     0.000339
      dxz     :     0.000261
      dyz     :    -0.000085
      dx2y2   :     0.000253
      dxy     :     0.000086
      f0      :     0.000005  f :    -0.000029
      f+1     :    -0.000011
      f-1     :    -0.000007
      f+2     :    -0.000002
      f-2     :     0.000011
      f+3     :     0.000062
      f-3     :    -0.000086
 10 O s       :     0.006223  s :     0.006223
      pz      :     0.015010  p :     0.484284
      px      :     0.305478
      py      :     0.163796
      dz2     :    -0.000144  d :     0.000343
      dxz     :    -0.000360
      dyz     :     0.000073
      dx2y2   :     0.000556
      dxy     :     0.000218
      f0      :     0.000002  f :    -0.000029
      f+1     :    -0.000037
      f-1     :     0.000005
      f+2     :     0.000042
      f-2     :    -0.000044
      f+3     :     0.000055
      f-3     :    -0.000051
 11 H s       :     0.000003  s :     0.000003
      pz      :     0.000001  p :     0.000002
      px      :     0.000001
      py      :     0.000000
 12 H s       :    -0.000031  s :    -0.000031
      pz      :     0.000001  p :     0.000002
      px      :     0.000001
      py      :     0.000000
 13 H s       :    -0.000032  s :    -0.000032
      pz      :     0.000000  p :     0.000002
      px      :     0.000001
      py      :     0.000000
 14 H s       :    -0.000095  s :    -0.000095
      pz      :     0.000027  p :     0.000055
      px      :     0.000011
      py      :     0.000017
 15 H s       :     0.000750  s :     0.000750
      pz      :    -0.000052  p :     0.000120
      px      :     0.000108
      py      :     0.000064
 16 H s       :     0.000752  s :     0.000752
      pz      :     0.000053  p :     0.000131
      px      :     0.000055
      py      :     0.000024
 17 H s       :    -0.000100  s :    -0.000100
      pz      :     0.000025  p :     0.000055
      px      :     0.000012
      py      :     0.000018


                      *****************************
                      * MAYER POPULATION ANALYSIS *
                      *****************************

  NA   - Mulliken gross atomic population
  ZA   - Total nuclear charge
  QA   - Mulliken gross atomic charge
  VA   - Mayer's total valence
  BVA  - Mayer's bonded valence
  FA   - Mayer's free valence

  ATOM       NA         ZA         QA         VA         BVA        FA
  0 C      6.3956     6.0000    -0.3956     3.9649     3.9649     0.0000
  1 S     16.0044    16.0000    -0.0044     2.4140     2.4140     0.0000
  2 C      5.8536     6.0000     0.1464     3.9084     3.9084     0.0000
  3 C      6.1933     6.0000    -0.1933     3.8768     3.8768     0.0000
  4 C      6.2106     6.0000    -0.2106     4.0582     4.0581     0.0001
  5 C      6.0150     6.0000    -0.0150     3.7084     3.7082     0.0002
  6 C      6.1936     6.0000    -0.1936     4.0131     4.0130     0.0001
  7 C      6.1376     6.0000    -0.1376     3.8740     3.8740     0.0000
  8 C      5.5546     6.0000     0.4454     4.2560     4.2501     0.0059
  9 O      8.2490     8.0000    -0.2490     2.3079     2.0437     0.2643
 10 O      8.2461     8.0000    -0.2461     2.3091     2.0371     0.2720
 11 H      0.8359     1.0000     0.1641     0.9676     0.9676     0.0000
 12 H      0.8485     1.0000     0.1515     0.9575     0.9575     0.0000
 13 H      0.8505     1.0000     0.1495     0.9564     0.9564     0.0000
 14 H      0.8580     1.0000     0.1420     0.9703     0.9703     0.0000
 15 H      0.8468     1.0000     0.1532     0.9791     0.9791     0.0000
 16 H      0.8456     1.0000     0.1544     0.9763     0.9763     0.0000
 17 H      0.8611     1.0000     0.1389     0.9749     0.9749    -0.0000

  Mayer bond orders larger than 0.100000
B(  0-C ,  1-S ) :   1.0706 B(  0-C , 11-H ) :   0.9550 B(  0-C , 12-H ) :   0.9576 
B(  0-C , 13-H ) :   0.9571 B(  1-S ,  2-C ) :   1.2043 B(  2-C ,  3-C ) :   1.2936 
B(  2-C ,  7-C ) :   1.3084 B(  3-C ,  4-C ) :   1.4635 B(  3-C , 14-H ) :   0.9607 
B(  4-C ,  5-C ) :   1.3906 B(  4-C , 15-H ) :   0.9506 B(  5-C ,  6-C ) :   1.3494 
B(  5-C ,  8-C ) :   1.0112 B(  6-C ,  7-C ) :   1.4858 B(  6-C , 16-H ) :   0.9615 
B(  7-C , 17-H ) :   0.9744 B(  8-C ,  9-O ) :   1.6210 B(  8-C , 10-O ) :   1.6149 
B(  9-O , 10-O ) :   0.4000 

-------
TIMINGS
-------

Total SCF time: 0 days 0 hours 1 min 10 sec 

Total time                  ....      70.242 sec
Sum of individual times     ....      69.214 sec  ( 98.5%)

Fock matrix formation       ....      66.756 sec  ( 95.0%)
  Split-RI-J                ....       3.109 sec  (  4.7% of F)
  Chain of spheres X        ....      54.935 sec  ( 82.3% of F)
  XC integration            ....       6.262 sec  (  9.4% of F)
    Basis function eval.    ....       1.151 sec  ( 18.4% of XC)
    Density eval.           ....       2.415 sec  ( 38.6% of XC)
    XC-Functional eval.     ....       0.327 sec  (  5.2% of XC)
    XC-Potential eval.      ....       1.662 sec  ( 26.5% of XC)
Diagonalization             ....       0.813 sec  (  1.2%)
Density matrix formation    ....       0.041 sec  (  0.1%)
Population analysis         ....       0.104 sec  (  0.1%)
Initial guess               ....       0.083 sec  (  0.1%)
Orbital Transformation      ....       0.000 sec  (  0.0%)
Orbital Orthonormalization  ....       0.066 sec  (  0.1%)
DIIS solution               ....       0.403 sec  (  0.6%)
Grid generation             ....       1.014 sec  (  1.4%)

Maximum memory used throughout the entire SCF-calculation: 94.3 MB


-------------------------------------------------------------------------------
                          DFT DISPERSION CORRECTION                            
                                                                               
                              DFTD3 V3.1  Rev 1                                
                              USING zero damping                               
-------------------------------------------------------------------------------
The omegaB97X-D3 functional is recognized. Fit by Chai et al.
Active option DFTDOPT                   ...         3   

molecular C6(AA) [au] = 4868.452469 


            DFT-D V3
 parameters
 s6 scaling factor         :     1.0000 
 rs6 scaling factor        :     1.2810 
 s8 scaling factor         :     1.0000 
 rs8 scaling factor        :     1.0940 
 Damping factor alpha6     :    14.0000 
 Damping factor alpha8     :    16.0000 
 ad hoc parameters k1-k3   :    16.0000     1.3333    -4.0000 

 Edisp/kcal,au: -3.498358655036  -0.005574988787 
 E6   /kcal   :  -1.431793821 
 E8   /kcal   :  -2.066564834 
 % E8         :  59.072411889 

-------------------------   ----------------
Dispersion correction           -0.005574989
-------------------------   ----------------


-------------------------   --------------------
FINAL SINGLE POINT ENERGY      -857.703456591648
-------------------------   --------------------

                                *** OPTIMIZATION RUN DONE ***

                            ***************************************
                            *     ORCA property calculations      *
                            ***************************************

                                    ---------------------
                                    Active property flags
                                    ---------------------
   (+) Dipole Moment


------------------------------------------------------------------------------
                       ORCA ELECTRIC PROPERTIES CALCULATION
------------------------------------------------------------------------------

Dipole Moment Calculation                       ... on
Quadrupole Moment Calculation                   ... off
Polarizability Calculation                      ... off
GBWName                                         ... /burg/berkelbach/users/eav2136/projects/peroxide_dissociation/05_range_separated_functional/wb97x-d-radical/wb97x-d-radical_opt.gbw
Electron density                                ... /burg/berkelbach/users/eav2136/projects/peroxide_dissociation/05_range_separated_functional/wb97x-d-radical/wb97x-d-radical_opt.scfp
The origin for moment calculation is the CENTER OF MASS  = ( 1.621015,  6.638639  2.134022)

-------------
DIPOLE MOMENT
-------------
                                X             Y             Z
Electronic contribution:      2.75410      -6.62322      -5.83698
Nuclear contribution   :     -3.05090       8.20516       7.04883
                        -----------------------------------------
Total Dipole Moment    :     -0.29681       1.58194       1.21185
                        -----------------------------------------
Magnitude (a.u.)       :      2.01474
Magnitude (Debye)      :      5.12107



--------------------
Rotational spectrum 
--------------------
 
Rotational constants in cm-1:     0.107828     0.015115     0.013294 
Rotational constants in MHz :  3232.592409   453.144149   398.552524 

 Dipole components along the rotational axes: 
x,y,z [a.u.] :     1.974496     0.400649     0.005780 
x,y,z [Debye]:     5.018771     1.018368     0.014691 

 

Timings for individual modules:

Sum of individual times         ...     1965.571 sec (=  32.760 min)
GTO integral calculation        ...       15.352 sec (=   0.256 min)   0.8 %
SCF iterations                  ...     1707.988 sec (=  28.466 min)  86.9 %
SCF Gradient evaluation         ...      241.685 sec (=   4.028 min)  12.3 %
Geometry relaxation             ...        0.545 sec (=   0.009 min)   0.0 %
                             ****ORCA TERMINATED NORMALLY****
TOTAL RUN TIME: 0 days 0 hours 32 minutes 57 seconds 924 msec
