Job execution start: Fri Apr 22 11:40:04 EDT 2022
Shared library path: /cm/shared/apps/cuda11.0/toolkit/11.0.3/compat:/burg/berkelbach/users/eav2136/builds/orca/5.0.3/orca:/cm/shared/apps/ucx/1.8.1/lib64:/cm/local/apps/cuda/libs/current/lib64:/cm/shared/apps/cuda11.0/toolkit/11.0.3/targets/x86_64-linux/lib:/cm/shared/apps/cuda11.0/visual-tools/11.0.3/libnvvp:/burg/opt/openmpi-4.1.1_ucx_cuda_11.0.3_support/lib:/cm/shared/apps/slurm/current/lib64/slurm:/cm/shared/apps/slurm/current/lib64
Slurm Job ID is: 1845634
Slurm Job name is: wb97x-d-radical-nmf_opt
g068

                                 *****************
                                 * O   R   C   A *
                                 *****************

                                            #,                                       
                                            ###                                      
                                            ####                                     
                                            #####                                    
                                            ######                                   
                                           ########,                                 
                                     ,,################,,,,,                         
                               ,,#################################,,                 
                          ,,##########################################,,             
                       ,#########################################, ''#####,          
                    ,#############################################,,   '####,        
                  ,##################################################,,,,####,       
                ,###########''''           ''''###############################       
              ,#####''   ,,,,##########,,,,          '''####'''          '####       
            ,##' ,,,,###########################,,,                        '##       
           ' ,,###''''                  '''############,,,                           
         ,,##''                                '''############,,,,        ,,,,,,###''
      ,#''                                            '''#######################'''  
     '                                                          ''''####''''         
             ,#######,   #######,   ,#######,      ##                                
            ,#'     '#,  ##    ##  ,#'     '#,    #''#        ######   ,####,        
            ##       ##  ##   ,#'  ##            #'  '#       #        #'  '#        
            ##       ##  #######   ##           ,######,      #####,   #    #        
            '#,     ,#'  ##    ##  '#,     ,#' ,#      #,         ##   #,  ,#        
             '#######'   ##     ##  '#######'  #'      '#     #####' # '####'        



                  #######################################################
                  #                        -***-                        #
                  #          Department of theory and spectroscopy      #
                  #    Directorship and core code : Frank Neese         #
                  #        Max Planck Institute fuer Kohlenforschung    #
                  #                Kaiser Wilhelm Platz 1               #
                  #                 D-45470 Muelheim/Ruhr               #
                  #                      Germany                        #
                  #                                                     #
                  #                  All rights reserved                #
                  #                        -***-                        #
                  #######################################################


                         Program Version 5.0.3 -  RELEASE  -


 With contributions from (in alphabetic order):
   Daniel Aravena         : Magnetic Suceptibility
   Michael Atanasov       : Ab Initio Ligand Field Theory (pilot matlab implementation)
   Alexander A. Auer      : GIAO ZORA, VPT2 properties, NMR spectrum
   Ute Becker             : Parallelization
   Giovanni Bistoni       : ED, misc. LED, open-shell LED, HFLD
   Martin Brehm           : Molecular dynamics
   Dmytro Bykov           : SCF Hessian
   Vijay G. Chilkuri      : MRCI spin determinant printing, contributions to CSF-ICE
   Dipayan Datta          : RHF DLPNO-CCSD density
   Achintya Kumar Dutta   : EOM-CC, STEOM-CC
   Dmitry Ganyushin       : Spin-Orbit,Spin-Spin,Magnetic field MRCI
   Miquel Garcia          : C-PCM and meta-GGA Hessian, CC/C-PCM, Gaussian charge scheme
   Yang Guo               : DLPNO-NEVPT2, F12-NEVPT2, CIM, IAO-localization
   Andreas Hansen         : Spin unrestricted coupled pair/coupled cluster methods
   Benjamin Helmich-Paris : MC-RPA, TRAH-SCF, COSX integrals
   Lee Huntington         : MR-EOM, pCC
   Robert Izsak           : Overlap fitted RIJCOSX, COSX-SCS-MP3, EOM
   Marcus Kettner         : VPT2
   Christian Kollmar      : KDIIS, OOCD, Brueckner-CCSD(T), CCSD density, CASPT2, CASPT2-K
   Simone Kossmann        : Meta GGA functionals, TD-DFT gradient, OOMP2, MP2 Hessian
   Martin Krupicka        : Initial AUTO-CI
   Lucas Lang             : DCDCAS
   Marvin Lechner         : AUTO-CI (C++ implementation), FIC-MRCC
   Dagmar Lenk            : GEPOL surface, SMD
   Dimitrios Liakos       : Extrapolation schemes; Compound Job, initial MDCI parallelization
   Dimitrios Manganas     : Further ROCIS development; embedding schemes
   Dimitrios Pantazis     : SARC Basis sets
   Anastasios Papadopoulos: AUTO-CI, single reference methods and gradients
   Taras Petrenko         : DFT Hessian,TD-DFT gradient, ASA, ECA, R-Raman, ABS, FL, XAS/XES, NRVS
   Peter Pinski           : DLPNO-MP2, DLPNO-MP2 Gradient
   Christoph Reimann      : Effective Core Potentials
   Marius Retegan         : Local ZFS, SOC
   Christoph Riplinger    : Optimizer, TS searches, QM/MM, DLPNO-CCSD(T), (RO)-DLPNO pert. Triples
   Tobias Risthaus        : Range-separated hybrids, TD-DFT gradient, RPA, STAB
   Michael Roemelt        : Original ROCIS implementation
   Masaaki Saitow         : Open-shell DLPNO-CCSD energy and density
   Barbara Sandhoefer     : DKH picture change effects
   Avijit Sen             : IP-ROCIS
   Kantharuban Sivalingam : CASSCF convergence, NEVPT2, FIC-MRCI
   Bernardo de Souza      : ESD, SOC TD-DFT
   Georgi Stoychev        : AutoAux, RI-MP2 NMR, DLPNO-MP2 response
   Willem Van den Heuvel  : Paramagnetic NMR
   Boris Wezisla          : Elementary symmetry handling
   Frank Wennmohs         : Technical directorship


 We gratefully acknowledge several colleagues who have allowed us to
 interface, adapt or use parts of their codes:
   Stefan Grimme, W. Hujo, H. Kruse, P. Pracht,  : VdW corrections, initial TS optimization,
                  C. Bannwarth, S. Ehlert          DFT functionals, gCP, sTDA/sTD-DF
   Ed Valeev, F. Pavosevic, A. Kumar             : LibInt (2-el integral package), F12 methods
   Garnet Chan, S. Sharma, J. Yang, R. Olivares  : DMRG
   Ulf Ekstrom                                   : XCFun DFT Library
   Mihaly Kallay                                 : mrcc  (arbitrary order and MRCC methods)
   Jiri Pittner, Ondrej Demel                    : Mk-CCSD
   Frank Weinhold                                : gennbo (NPA and NBO analysis)
   Christopher J. Cramer and Donald G. Truhlar   : smd solvation model
   Lars Goerigk                                  : TD-DFT with DH, B97 family of functionals
   V. Asgeirsson, H. Jonsson                     : NEB implementation
   FAccTs GmbH                                   : IRC, NEB, NEB-TS, DLPNO-Multilevel, CI-OPT
                                                   MM, QMMM, 2- and 3-layer-ONIOM, Crystal-QMMM,
                                                   LR-CPCM, SF, NACMEs, symmetry and pop. for TD-DFT,
                                                   nearIR, NL-DFT gradient (VV10), updates on ESD,
                                                   ML-optimized integration grids
   S Lehtola, MJT Oliveira, MAL Marques          : LibXC Library
   Liviu Ungur et al                             : ANISO software


 Your calculation uses the libint2 library for the computation of 2-el integrals
 For citations please refer to: http://libint.valeyev.net

 Your ORCA version has been built with support for libXC version: 5.1.0
 For citations please refer to: https://tddft.org/programs/libxc/

 This ORCA versions uses:
   CBLAS   interface :  Fast vector & matrix operations
   LAPACKE interface :  Fast linear algebra routines
   SCALAPACK package :  Parallel linear algebra routines
   Shared memory     :  Shared parallel matrices
   BLAS/LAPACK       :  OpenBLAS 0.3.15  USE64BITINT DYNAMIC_ARCH NO_AFFINITY SkylakeX SINGLE_THREADED
        Core in use  :  SkylakeX
   Copyright (c) 2011-2014, The OpenBLAS Project


Your calculation utilizes the atom-pairwise dispersion correction
with the zero-damping scheme (D30)
Cite in your paper:
S.Grimme, J.Antony, S.Ehrlich and H.Krieg, J.Chem.Phys., 132, (2010), 154104 
   

Your calculation utilizes the SMD solvation module
Please cite in your paper:
A.V. Marenich, C.J. Cramer, D.G. Truhlar J. Phys. Chem. B, 113, (2009), 6378 

XCFun DFT library Copyright 2009-2010 Ulf Ekstrom and contributors.
See http://admol.org/xcfun for more information.
This is free software; see the source code for copying conditions.
There is ABSOLUTELY NO WARRANTY; not even for MERCHANTABILITY or FITNESS FOR A PARTICULAR PURPOSE.
For details see the documentation.
Scientific users of this library should cite U. Ekstrom, L. Visscher, R. Bast, A. J. Thorvaldsen and K. Ruud;
J.Chem.Theor.Comp. 2010, DOI: 10.1021/ct100117s
XCFun Version 0.99 

================================================================================

----- Orbital basis set information -----
Your calculation utilizes the basis: def2-TZVP
   F. Weigend and R. Ahlrichs, Phys. Chem. Chem. Phys. 7, 3297 (2005).

----- AuxJ basis set information -----
Your calculation utilizes the auxiliary basis: def2/J
   F. Weigend, Phys. Chem. Chem. Phys. 8, 1057 (2006).

================================================================================
                                        WARNINGS
                       Please study these warnings very carefully!
================================================================================


WARNING: Geometry Optimization
  ===> : Switching off AutoStart
         For restart on a previous wavefunction, please use MOREAD

INFO   : the flag for use of the SHARK integral package has been found!

================================================================================
                                       INPUT FILE
================================================================================
NAME = /burg/berkelbach/users/eav2136/projects/peroxide_dissociation/05_range_separated_functional/wb97x-d-radical-nmf/wb97x-d-radical-nmf_opt.inp
|  1> ! UKS wB97X-D3 def2-TZVP TIGHTSCF Opt CPCM PAL8
|  2> %maxcore 5000
|  3> %cpcm
|  4> smd true
|  5> SMDsolvent "N-METHYLFORMAMIDE"
|  6> end
|  7> * xyz 0 2
|  8>  C -0.07425707479814 6.45007760366319 3.54636897867849
|  9>  S 1.48979584793712 6.08048225687873 2.75598260255209
| 10>  C 1.14936654141856 4.63662227087222 1.83369205968326
| 11>  C -0.09136557109480 4.00305286554088 1.79338352444578
| 12>  C -0.25826928718407 2.84269542505768 1.05936282240646
| 13>  C 0.80050967676942 2.30271389692801 0.33923873907232
| 14>  C 2.02875697338567 2.96040825022008 0.34201900047512
| 15>  C 2.20764771123846 4.10330343094754 1.09121055149825
| 16>  C 0.66254428710301 1.09941809961861 -0.50690159852297
| 17>  O 0.00000000000000 0.00000000000000 0.00000000000000
| 18>  O 1.06713866538631 0.98717129960580 -1.62357736506780
| 19>  H 0.10416325535368 7.34607684664392 4.14087383255362
| 20>  H -0.38882275224257 5.64387294862163 4.21002028523424
| 21>  H -0.85323854703301 6.66443357654391 2.81385647784552
| 22>  H -0.93700004363157 4.40513362395569 2.33421606140266
| 23>  H -1.23507439683237 2.37497021944690 1.02749021968162
| 24>  H 2.84544686618639 2.55882587909200 -0.24576673820719
| 25>  H 3.17295340310622 4.59670965109571 1.10248346369500
| 26> *
| 27> 
| 28>                          ****END OF INPUT****
================================================================================

                       *****************************
                       * Geometry Optimization Run *
                       *****************************

Geometry optimization settings:
Update method            Update   .... BFGS
Choice of coordinates    CoordSys .... Z-matrix Internals
Initial Hessian          InHess   .... Almoef's Model

Convergence Tolerances:
Energy Change            TolE     ....  5.0000e-06 Eh
Max. Gradient            TolMAXG  ....  3.0000e-04 Eh/bohr
RMS Gradient             TolRMSG  ....  1.0000e-04 Eh/bohr
Max. Displacement        TolMAXD  ....  4.0000e-03 bohr
RMS Displacement         TolRMSD  ....  2.0000e-03 bohr
Strict Convergence                ....  False
------------------------------------------------------------------------------
                        ORCA OPTIMIZATION COORDINATE SETUP
------------------------------------------------------------------------------

The optimization will be done in new redundant internal coordinates
Making redundant internal coordinates   ...  (new redundants) done
Evaluating the initial hessian          ...  (Almloef) done
Evaluating the coordinates              ...  done
Calculating the B-matrix                .... done
Calculating the G-matrix                .... done
Diagonalizing the G-matrix              .... done
Small eigenvalue found = 1.379e-02
The first mode is                       ....   31
The number of degrees of freedom        ....   48

    -----------------------------------------------------------------
                    Redundant Internal Coordinates


    -----------------------------------------------------------------
         Definition                    Initial Value    Approx d2E/dq
    -----------------------------------------------------------------
      1. B(S   1,C   0)                  1.7910         0.386175   
      2. B(C   2,S   1)                  1.7468         0.454240   
      3. B(C   3,C   2)                  1.3937         0.616320   
      4. B(C   4,C   3)                  1.3831         0.640745   
      5. B(C   5,C   4)                  1.3897         0.625563   
      6. B(C   6,C   5)                  1.3933         0.617369   
      7. B(C   7,C   2)                  1.3985         0.605696   
      8. B(C   7,C   6)                  1.3782         0.652421   
      9. B(C   8,C   5)                  1.4775         0.453096   
     10. B(O   9,C   8)                  1.3801         0.580356   
     11. B(O  10,C   8)                  1.1930         1.153901   
     12. B(H  11,C   0)                  1.0900         0.360109   
     13. B(H  12,C   0)                  1.0906         0.359342   
     14. B(H  13,C   0)                  1.0906         0.359351   
     15. B(H  14,C   3)                  1.0813         0.371759   
     16. B(H  15,C   4)                  1.0835         0.368828   
     17. B(H  16,C   6)                  1.0834         0.368946   
     18. B(H  17,C   7)                  1.0842         0.367916   
     19. A(S   1,C   0,H  13)          111.5879         0.342618   
     20. A(S   1,C   0,H  12)          111.5859         0.342616   
     21. A(H  12,C   0,H  13)          110.3658         0.290648   
     22. A(H  11,C   0,H  12)          108.8436         0.290744   
     23. A(S   1,C   0,H  11)          105.5091         0.342738   
     24. A(H  11,C   0,H  13)          108.7656         0.290746   
     25. A(C   0,S   1,C   2)          103.4970         0.419917   
     26. A(S   1,C   2,C   7)          116.6202         0.431369   
     27. A(C   3,C   2,C   7)          119.0102         0.431786   
     28. A(S   1,C   2,C   3)          124.3692         0.432719   
     29. A(C   2,C   3,C   4)          120.2744         0.436178   
     30. A(C   4,C   3,H  14)          118.8821         0.356807   
     31. A(C   2,C   3,H  14)          120.8433         0.354461   
     32. A(C   5,C   4,H  15)          120.2581         0.354880   
     33. A(C   3,C   4,H  15)          119.1145         0.356327   
     34. A(C   3,C   4,C   5)          120.6005         0.437350   
     35. A(C   6,C   5,C   8)          117.8994         0.410112   
     36. A(C   4,C   5,C   8)          122.8259         0.411072   
     37. A(C   4,C   5,C   6)          119.1567         0.434432   
     38. A(C   7,C   6,H  16)          120.2952         0.357442   
     39. A(C   5,C   6,H  16)          119.2412         0.354107   
     40. A(C   5,C   6,C   7)          120.4618         0.437734   
     41. A(C   6,C   7,H  17)          119.9087         0.357272   
     42. A(C   2,C   7,H  17)          119.6508         0.352797   
     43. A(C   2,C   7,C   6)          120.4398         0.436231   
     44. A(O   9,C   8,O  10)          115.5727         0.473849   
     45. A(C   5,C   8,O  10)          125.5219         0.455899   
     46. A(C   5,C   8,O   9)          118.8999         0.403044   
     47. D(C   2,S   1,C   0,H  12)     61.4721         0.003898   
     48. D(C   2,S   1,C   0,H  11)    179.5234         0.003898   
     49. D(C   2,S   1,C   0,H  13)    -62.5176         0.003898   
     50. D(C   7,C   2,S   1,C   0)    179.8441         0.004531   
     51. D(C   3,C   2,S   1,C   0)      0.0768         0.004531   
     52. D(C   4,C   3,C   2,S   1)   -178.3900         0.026266   
     53. D(H  14,C   3,C   2,C   7)   -178.3097         0.026266   
     54. D(H  14,C   3,C   2,S   1)      1.4524         0.026266   
     55. D(C   4,C   3,C   2,C   7)      1.8479         0.026266   
     56. D(H  15,C   4,C   3,H  14)      1.1825         0.028529   
     57. D(H  15,C   4,C   3,C   2)   -178.9720         0.028529   
     58. D(C   5,C   4,C   3,H  14)    179.3028         0.028529   
     59. D(C   5,C   4,C   3,C   2)     -0.8517         0.028529   
     60. D(C   6,C   5,C   4,H  15)    176.7603         0.027109   
     61. D(C   6,C   5,C   4,C   3)     -1.3385         0.027109   
     62. D(C   8,C   5,C   4,H  15)      0.7946         0.027109   
     63. D(C   8,C   5,C   4,C   3)   -177.3042         0.027109   
     64. D(H  16,C   6,C   5,C   8)     -1.7852         0.026361   
     65. D(H  16,C   6,C   5,C   4)   -177.9495         0.026361   
     66. D(C   7,C   6,C   5,C   8)    178.6982         0.026361   
     67. D(C   7,C   6,C   5,C   4)      2.5338         0.026361   
     68. D(H  17,C   7,C   6,H  16)     -0.7379         0.029652   
     69. D(H  17,C   7,C   6,C   5)    178.7736         0.029652   
     70. D(C   2,C   7,C   6,H  16)    178.9472         0.029652   
     71. D(C   2,C   7,C   6,C   5)     -1.5413         0.029652   
     72. D(H  17,C   7,C   2,C   3)    179.0287         0.025317   
     73. D(H  17,C   7,C   2,S   1)     -0.7516         0.025317   
     74. D(C   6,C   7,C   2,C   3)     -0.6572         0.025317   
     75. D(C   6,C   7,C   2,S   1)    179.5625         0.025317   
     76. D(O   9,C   8,C   5,C   6)    137.7156         0.013991   
     77. D(O   9,C   8,C   5,C   4)    -46.2708         0.013991   
     78. D(O  10,C   8,C   5,C   6)    -43.1749         0.013991   
     79. D(O  10,C   8,C   5,C   4)    132.8388         0.013991   
    -----------------------------------------------------------------

Number of atoms                         .... 18
Number of degrees of freedom            .... 79

         *************************************************************
         *                GEOMETRY OPTIMIZATION CYCLE   1            *
         *************************************************************
---------------------------------
CARTESIAN COORDINATES (ANGSTROEM)
---------------------------------
  C     -0.074257    6.450078    3.546369
  S      1.489796    6.080482    2.755983
  C      1.149367    4.636622    1.833692
  C     -0.091366    4.003053    1.793384
  C     -0.258269    2.842695    1.059363
  C      0.800510    2.302714    0.339239
  C      2.028757    2.960408    0.342019
  C      2.207648    4.103303    1.091211
  C      0.662544    1.099418   -0.506902
  O      0.000000    0.000000    0.000000
  O      1.067139    0.987171   -1.623577
  H      0.104163    7.346077    4.140874
  H     -0.388823    5.643873    4.210020
  H     -0.853239    6.664434    2.813856
  H     -0.937000    4.405134    2.334216
  H     -1.235074    2.374970    1.027490
  H      2.845447    2.558826   -0.245767
  H      3.172953    4.596710    1.102483

----------------------------
CARTESIAN COORDINATES (A.U.)
----------------------------
  NO LB      ZA    FRAG     MASS         X           Y           Z
   0 C     6.0000    0    12.011   -0.140326   12.188880    6.701666
   1 S    16.0000    0    32.060    2.815306   11.490446    5.208052
   2 C     6.0000    0    12.011    2.171988    8.761946    3.465176
   3 C     6.0000    0    12.011   -0.172656    7.564674    3.389004
   4 C     6.0000    0    12.011   -0.488058    5.371916    2.001906
   5 C     6.0000    0    12.011    1.512744    4.351499    0.641068
   6 C     6.0000    0    12.011    3.833795    5.594361    0.646322
   7 C     6.0000    0    12.011    4.171850    7.754120    2.062089
   8 C     6.0000    0    12.011    1.252027    2.077599   -0.957905
   9 O     8.0000    0    15.999    0.000000    0.000000    0.000000
  10 O     8.0000    0    15.999    2.016600    1.865483   -3.068117
  11 H     1.0000    0     1.008    0.196840   13.882073    7.825117
  12 H     1.0000    0     1.008   -0.734769   10.665374    7.955785
  13 H     1.0000    0     1.008   -1.612387   12.593954    5.317418
  14 H     1.0000    0     1.008   -1.770673    8.324496    4.411029
  15 H     1.0000    0     1.008   -2.333952    4.488043    1.941675
  16 H     1.0000    0     1.008    5.377115    4.835480   -0.464432
  17 H     1.0000    0     1.008    5.996013    8.686522    2.083392

--------------------------------
INTERNAL COORDINATES (ANGSTROEM)
--------------------------------
 C      0   0   0     0.000000000000     0.00000000     0.00000000
 S      1   0   0     1.790969818017     0.00000000     0.00000000
 C      2   1   0     1.746780929995   103.49703222     0.00000000
 C      3   2   1     1.393718459520   124.36918170     0.07682297
 C      4   3   2     1.383138688329   120.27439762   181.60997218
 C      5   4   3     1.389666017657   120.60050203   359.14829865
 C      6   5   4     1.393255545064   119.15672375   358.66151732
 C      7   6   5     1.378223229504   120.46180539     2.53383799
 C      6   5   4     1.477466986255   122.82593719   182.69580816
 O      9   6   5     1.380084896203   118.89987975   313.72924568
 O      9   6   5     1.193004913083   125.52191253   132.83876530
 H      1   2   3     1.089992880213   105.50910599   179.52342869
 H      1   2   3     1.090573504139   111.58592171    61.47211732
 H      1   2   3     1.090566449636   111.58785041   297.48242808
 H      4   3   2     1.081326236832   120.84329981     1.45240478
 H      5   4   3     1.083480942612   119.11451180   181.02803207
 H      7   6   5     1.083394137146   119.24119758   182.05045369
 H      8   7   6     1.084154903776   119.90872766   178.77361985

---------------------------
INTERNAL COORDINATES (A.U.)
---------------------------
 C      0   0   0     0.000000000000     0.00000000     0.00000000
 S      1   0   0     3.384442470171     0.00000000     0.00000000
 C      2   1   0     3.300937573646   103.49703222     0.00000000
 C      3   2   1     2.633746196283   124.36918170     0.07682297
 C      4   3   2     2.613753326172   120.27439762   181.60997218
 C      5   4   3     2.626088190988   120.60050203   359.14829865
 C      6   5   4     2.632871414738   119.15672375   358.66151732
 C      7   6   5     2.604464455171   120.46180539     2.53383799
 C      6   5   4     2.792007975932   122.82593719   182.69580816
 O      9   6   5     2.607982495384   118.89987975   313.72924568
 O      9   6   5     2.254452562149   125.52191253   132.83876530
 H      1   2   3     2.059788031526   105.50910599   179.52342869
 H      1   2   3     2.060885251733   111.58592171    61.47211732
 H      1   2   3     2.060871920655   111.58785041   297.48242808
 H      4   3   2     2.043410449036   120.84329981     1.45240478
 H      5   4   3     2.047482252859   119.11451180   181.02803207
 H      7   6   5     2.047318214302   119.24119758   182.05045369
 H      8   7   6     2.048755854885   119.90872766   178.77361985

---------------------
BASIS SET INFORMATION
---------------------
There are 4 groups of distinct atoms

 Group   1 Type C   : 11s6p2d1f contracted to 5s3p2d1f pattern {62111/411/11/1}
 Group   2 Type S   : 14s9p3d1f contracted to 5s5p2d1f pattern {73211/51111/21/1}
 Group   3 Type O   : 11s6p2d1f contracted to 5s3p2d1f pattern {62111/411/11/1}
 Group   4 Type H   : 5s1p contracted to 3s1p pattern {311/1}

Atom   0C    basis set group =>   1
Atom   1S    basis set group =>   2
Atom   2C    basis set group =>   1
Atom   3C    basis set group =>   1
Atom   4C    basis set group =>   1
Atom   5C    basis set group =>   1
Atom   6C    basis set group =>   1
Atom   7C    basis set group =>   1
Atom   8C    basis set group =>   1
Atom   9O    basis set group =>   3
Atom  10O    basis set group =>   3
Atom  11H    basis set group =>   4
Atom  12H    basis set group =>   4
Atom  13H    basis set group =>   4
Atom  14H    basis set group =>   4
Atom  15H    basis set group =>   4
Atom  16H    basis set group =>   4
Atom  17H    basis set group =>   4
---------------------------------
AUXILIARY/J BASIS SET INFORMATION
---------------------------------
There are 4 groups of distinct atoms

 Group   1 Type C   : 12s5p4d2f1g contracted to 6s4p3d1f1g pattern {711111/2111/211/2/1}
 Group   2 Type S   : 14s5p5d2f1g contracted to 8s4p3d1f1g pattern {71111111/2111/311/2/1}
 Group   3 Type O   : 12s5p4d2f1g contracted to 6s4p3d1f1g pattern {711111/2111/211/2/1}
 Group   4 Type H   : 5s2p1d contracted to 3s1p1d pattern {311/2/1}

Atom   0C    basis set group =>   1
Atom   1S    basis set group =>   2
Atom   2C    basis set group =>   1
Atom   3C    basis set group =>   1
Atom   4C    basis set group =>   1
Atom   5C    basis set group =>   1
Atom   6C    basis set group =>   1
Atom   7C    basis set group =>   1
Atom   8C    basis set group =>   1
Atom   9O    basis set group =>   3
Atom  10O    basis set group =>   3
Atom  11H    basis set group =>   4
Atom  12H    basis set group =>   4
Atom  13H    basis set group =>   4
Atom  14H    basis set group =>   4
Atom  15H    basis set group =>   4
Atom  16H    basis set group =>   4
Atom  17H    basis set group =>   4


           ************************************************************
           *        Program running with 8 parallel MPI-processes     *
           *              working on a common directory               *
           ************************************************************
------------------------------------------------------------------------------
                           ORCA GTO INTEGRAL CALCULATION
                           -- RI-GTO INTEGRALS CHOSEN --
------------------------------------------------------------------------------
------------------------------------------------------------------------------
                   ___                                                        
                  /   \      - P O W E R E D   B Y -                         
                 /     \                                                     
                 |  |  |   _    _      __       _____    __    __             
                 |  |  |  | |  | |    /  \     |  _  \  |  |  /  |          
                  \  \/   | |  | |   /    \    | | | |  |  | /  /          
                 / \  \   | |__| |  /  /\  \   | |_| |  |  |/  /          
                |  |  |   |  __  | /  /__\  \  |    /   |      \           
                |  |  |   | |  | | |   __   |  |    \   |  |\   \          
                \     /   | |  | | |  |  |  |  | |\  \  |  | \   \       
                 \___/    |_|  |_| |__|  |__|  |_| \__\ |__|  \__/        
                                                                              
                      - O R C A' S   B I G   F R I E N D -                    
                                      &                                       
                       - I N T E G R A L  F E E D E R -                       
                                                                              
 v1 FN, 2020, v2 2021                                                         
------------------------------------------------------------------------------


Reading SHARK input file /burg/berkelbach/users/eav2136/projects/peroxide_dissociation/05_range_separated_functional/wb97x-d-radical-nmf/wb97x-d-radical-nmf_opt.SHARKINP.tmp ... ok
----------------------
SHARK INTEGRAL PACKAGE
----------------------

Number of atoms                             ...     18
Number of basis functions                   ...    389
Number of shells                            ...    151
Maximum angular momentum                    ...      3
Integral batch strategy                     ... SHARK/LIBINT Hybrid
RI-J (if used) integral strategy            ... SPLIT-RIJ (Revised 2003 algorithm where possible)
Printlevel                                  ...      1
Contraction scheme used                     ... SEGMENTED contraction
Coulomb Range Separation                    ... NOT USED
Exchange Range Separation                   ... Long Range
   Mu parameter                             ...  0.250000
   Scaling (regular/separated)              ...  0.195728  0.804272
Finite Nucleus Model                        ... NOT USED
Auxiliary Coulomb fitting basis             ... AVAILABLE
   # of basis functions in Aux-J            ...    618
   # of shells in Aux-J                     ...    202
   Maximum angular momentum in Aux-J        ...      4
Auxiliary J/K fitting basis                 ... NOT available
Auxiliary Correlation fitting basis         ... NOT available
Auxiliary 'external' fitting basis          ... NOT available
Integral threshold                          ...     2.500000e-11
Primitive cut-off                           ...     2.500000e-12
Primitive pair pre-selection threshold      ...     2.500000e-12

Calculating pre-screening integrals         ... done (  0.0 sec) Dimension = 151
Organizing shell pair data                  ... done (  0.3 sec)
Shell pair information
Total number of shell pairs                 ...     11476
Shell pairs after pre-screening             ...      9496
Total number of primitive shell pairs       ...     36592
Primitive shell pairs kept                  ...     21620
          la=0 lb=0:   2303 shell pairs
          la=1 lb=0:   2678 shell pairs
          la=1 lb=1:    796 shell pairs
          la=2 lb=0:   1383 shell pairs
          la=2 lb=1:    801 shell pairs
          la=2 lb=2:    220 shell pairs
          la=3 lb=0:    667 shell pairs
          la=3 lb=1:    390 shell pairs
          la=3 lb=2:    204 shell pairs
          la=3 lb=3:     54 shell pairs

Calculating one electron integrals          ... done (  0.0 sec)
Calculating RI/J V-Matrix + Cholesky decomp.... done (  0.1 sec)
Calculating Nuclear repulsion               ... done (  0.0 sec) ENN=    631.489285915085 Eh

SHARK setup successfully completed in   0.6 seconds

Maximum memory used throughout the entire GTOINT-calculation: 24.2 MB


           ************************************************************
           *        Program running with 8 parallel MPI-processes     *
           *              working on a common directory               *
           ************************************************************
-------------------------------------------------------------------------------
                                 ORCA SCF
-------------------------------------------------------------------------------

------------
SCF SETTINGS
------------
Hamiltonian:
 Density Functional     Method          .... DFT(GTOs)
 Exchange Functional    Exchange        .... WB97X-D3
 Correlation Functional Correlation     .... WB97X-D3
 Gradients option       PostSCFGGA      .... off
 Hybrid DFT is turned on
   Fraction HF Exchange ScalHFX         ....  0.195728
   Scaling of DF-GGA-X  ScalDFX         ....  0.000000
   Scaling of DF-GGA-C  ScalDFC         ....  1.000000
   Scaling of DF-LDA-C  ScalLDAC        ....  1.000000
   Perturbative correction              ....  0.000000
   Density functional embedding theory  .... OFF
 Long-range corrected/Screened/Range-Separated Hybrid DFT is turned on
   Amount of maximum screened exact exchange              ....  0.804272
   Range separation parameter mu (erf(mu*r12)/r12)        ....  0.250000
 RI-approximation to the Coulomb term is turned on
   Number of AuxJ basis functions       .... 618
   RIJ-COSX (HFX calculated with COS-X)).... on


General Settings:
 Integral files         IntName         .... /burg/berkelbach/users/eav2136/projects/peroxide_dissociation/05_range_separated_functional/wb97x-d-radical-nmf/wb97x-d-radical-nmf_opt
 Hartree-Fock type      HFTyp           .... UHF
 Total Charge           Charge          ....    0
 Multiplicity           Mult            ....    2
 Number of Electrons    NEL             ....   87
 Basis Dimension        Dim             ....  389
 Nuclear Repulsion      ENuc            ....    631.4892859151 Eh

Convergence Acceleration:
 DIIS                   CNVDIIS         .... on
   Start iteration      DIISMaxIt       ....    12
   Startup error        DIISStart       ....  0.200000
   # of expansion vecs  DIISMaxEq       ....     5
   Bias factor          DIISBfac        ....   1.050
   Max. coefficient     DIISMaxC        ....  10.000
 Trust-Rad. Augm. Hess. CNVTRAH         .... auto
   Auto Start mean grad. ratio tolernc. ....  1.125000
   Auto Start start iteration           ....    20
   Auto Start num. interpolation iter.  ....    10
   Max. Number of Micro iterations      ....    16
   Max. Number of Macro iterations      .... Maxiter - #DIIS iter
   Number of Davidson start vectors     ....     2
   Converg. threshold I  (grad. norm)   ....   1.000e-05
   Converg. threshold II (energy diff.) ....   1.000e-08
   Grad. Scal. Fac. for Micro threshold ....   0.100
   Minimum threshold for Micro iter.    ....   0.010
   NR start threshold (gradient norm)   ....   0.001
   Initial trust radius                 ....   0.400
   Minimum AH scaling param. (alpha)    ....   1.000
   Maximum AH scaling param. (alpha)    .... 1000.000
   Orbital update algorithm             .... Taylor
   White noise on init. David. guess    .... on
   Maximum white noise                  ....   0.010
   Quad. conv. algorithm                .... NR
 SOSCF                  CNVSOSCF        .... off
 Level Shifting         CNVShift        .... on
   Level shift para.    LevelShift      ....    0.2500
   Turn off err/grad.   ShiftErr        ....    0.0010
 Zerner damping         CNVZerner       .... off
 Static damping         CNVDamp         .... on
   Fraction old density DampFac         ....    0.7000
   Max. Damping (<1)    DampMax         ....    0.9800
   Min. Damping (>=0)   DampMin         ....    0.0000
   Turn off err/grad.   DampErr         ....    0.1000
 Fernandez-Rico         CNVRico         .... off

SCF Procedure:
 Maximum # iterations   MaxIter         ....   125
 SCF integral mode      SCFMode         .... Direct
   Integral package                     .... SHARK and LIBINT hybrid scheme
 Reset frequency        DirectResetFreq ....    20
 Integral Threshold     Thresh          ....  2.500e-11 Eh
 Primitive CutOff       TCut            ....  2.500e-12 Eh

Convergence Tolerance:
 Convergence Check Mode ConvCheckMode   .... Total+1el-Energy
 Convergence forced     ConvForced      .... 0
 Energy Change          TolE            ....  1.000e-08 Eh
 1-El. energy change                    ....  1.000e-05 Eh
 DIIS Error             TolErr          ....  5.000e-07


Diagonalization of the overlap matrix:
Smallest eigenvalue                        ... 7.498e-06
Time for diagonalization                   ...    0.019 sec
Threshold for overlap eigenvalues          ... 1.000e-08
Number of eigenvalues below threshold      ... 0
Time for construction of square roots      ...    0.028 sec
Total time needed                          ...    0.047 sec

Time for model grid setup =    0.113 sec

------------------------------
INITIAL GUESS: MODEL POTENTIAL
------------------------------
Loading Hartree-Fock densities                     ... done
Calculating cut-offs                               ... done
Initializing the effective Hamiltonian             ... done
Setting up the integral package (SHARK)            ... done
Starting the Coulomb interaction                   ... done (   0.1 sec)
Reading the grid                                   ... done
Mapping shells                                     ... done
Starting the XC term evaluation                    ... done (   0.1 sec)
  promolecular density results
     # of electrons  =     87.002319788
     EX              =    -84.142216924
     EC              =     -2.991987125
     EX+EC           =    -87.134204050
Transforming the Hamiltonian                       ... done (   0.0 sec)
Diagonalizing the Hamiltonian                      ... done (   0.0 sec)
Back transforming the eigenvectors                 ... done (   0.0 sec)
Now organizing SCF variables                       ... done
                      ------------------
                      INITIAL GUESS DONE (   0.4 sec)
                      ------------------
-------------------
DFT GRID GENERATION
-------------------

General Integration Accuracy     IntAcc      ... 4.388
Radial Grid Type                 RadialGrid  ... OptM3 with GC (2021)
Angular Grid (max. ang.)         AngularGrid ... 4 (Lebedev-302)
Angular grid pruning method      GridPruning ... 4 (adaptive)
Weight generation scheme         WeightScheme... Becke
Basis function cutoff            BFCut       ... 1.0000e-11
Integration weight cutoff        WCut        ... 1.0000e-14
Angular grids for H and He will be reduced by one unit
Partially contracted basis set               ... off
Rotationally invariant grid construction     ... off

Total number of grid points                  ...    90151
Total number of batches                      ...     1417
Average number of points per batch           ...       63
Average number of grid points per atom       ...     5008
Time for grid setup =    0.424 sec

--------------------
COSX GRID GENERATION
--------------------

GRIDX 1
-------
General Integration Accuracy     IntAcc      ... 3.816
Radial Grid Type                 RadialGrid  ... OptM3 with GC (2021)
Angular Grid (max. ang.)         AngularGrid ... 1 (Lebedev-50)
Angular grid pruning method      GridPruning ... 4 (adaptive)
Weight generation scheme         WeightScheme... Becke
Basis function cutoff            BFCut       ... 1.0000e-11
Integration weight cutoff        WCut        ... 1.0000e-14
Angular grids for H and He will be reduced by one unit
Partially contracted basis set               ... on
Rotationally invariant grid construction     ... off

Total number of grid points                  ...    11402
Total number of batches                      ...      186
Average number of points per batch           ...       61
Average number of grid points per atom       ...      633
UseSFitting                                  ... on

GRIDX 2
-------
General Integration Accuracy     IntAcc      ... 4.020
Radial Grid Type                 RadialGrid  ... OptM3 with GC (2021)
Angular Grid (max. ang.)         AngularGrid ... 2 (Lebedev-110)
Angular grid pruning method      GridPruning ... 4 (adaptive)
Weight generation scheme         WeightScheme... Becke
Basis function cutoff            BFCut       ... 1.0000e-11
Integration weight cutoff        WCut        ... 1.0000e-14
Angular grids for H and He will be reduced by one unit
Partially contracted basis set               ... on
Rotationally invariant grid construction     ... off

Total number of grid points                  ...    25317
Total number of batches                      ...      406
Average number of points per batch           ...       62
Average number of grid points per atom       ...     1406
UseSFitting                                  ... on

GRIDX 3
-------
General Integration Accuracy     IntAcc      ... 4.338
Radial Grid Type                 RadialGrid  ... OptM3 with GC (2021)
Angular Grid (max. ang.)         AngularGrid ... 3 (Lebedev-194)
Angular grid pruning method      GridPruning ... 4 (adaptive)
Weight generation scheme         WeightScheme... Becke
Basis function cutoff            BFCut       ... 1.0000e-11
Integration weight cutoff        WCut        ... 1.0000e-14
Angular grids for H and He will be reduced by one unit
Partially contracted basis set               ... on
Rotationally invariant grid construction     ... off

Total number of grid points                  ...    56227
Total number of batches                      ...      886
Average number of points per batch           ...       63
Average number of grid points per atom       ...     3124
UseSFitting                                  ... on

Time for X-Grid setup             =    0.623 sec


--------------------
CPCM SOLVATION MODEL
--------------------
CPCM parameters:
  Epsilon                                         ...     181.5600
  Refrac                                          ...       1.4319
  Rsolv                                           ...       1.3000
  Surface type                                    ... GAUSSIAN VDW
  Epsilon function type                           ...         CPCM
Solvent:                                     ... N-METHYLFORMAMIDE
SMD-CDS solvent descriptors:
  Soln                                       ...    1.4319
  Soln25                                     ...    1.4310
  Sola                                       ...    0.4000
  Solb                                       ...    0.5500
  Solg                                       ...   55.4400
  Solc                                       ...    0.0000
  Solh                                       ...    0.0000
Radii:
 Radius for C  used is    3.4960 Bohr (=   1.8500 Ang.)
 Radius for S  used is    4.7054 Bohr (=   2.4900 Ang.)
 Radius for O  used is    2.9744 Bohr (=   1.5740 Ang.)
 Radius for H  used is    2.2677 Bohr (=   1.2000 Ang.)
Calculating surface                               ...        done! (  0.0s)
GEPOL surface points                              ...         1075
GEPOL Volume                                      ...    1197.3397
GEPOL Surface-area                                ...     688.6869
Calculating surface distance matrix               ...        done! (  0.0s)
Performing Cholesky decomposition & store         ...        done! (  0.2s)
Overall time for CPCM initialization              ...                 0.3s
--------------
SCF ITERATIONS
--------------
ITER       Energy         Delta-E        Max-DP      RMS-DP      [F,P]     Damp
               ***  Starting incremental Fock matrix formation  ***
  0   -857.3174788896   0.000000000000 0.11914862  0.00075129  0.1666361 0.7000
  1   -857.4809124406  -0.163433551050 0.12388026  0.00069729  0.0802543 0.7000
                               ***Turning on DIIS***
  2   -857.5568045108  -0.075892070160 0.21252482  0.00129298  0.0303561 0.0000
  3   -857.6784075345  -0.121603023691 0.09776816  0.00052911  0.0439160 0.0000
  4   -857.7011506272  -0.022743092702 0.01757576  0.00013419  0.0040528 0.0000
  5   -857.7025291504  -0.001378523168 0.01071612  0.00008067  0.0046039 0.0000
  6   -857.7030822568  -0.000553106444 0.00295877  0.00004320  0.0013931 0.0000
  7   -857.7033890951  -0.000306838327 0.00291031  0.00003182  0.0011890 0.0000
  8   -857.7035672391  -0.000178143967 0.00133268  0.00001990  0.0010313 0.0000
  9   -857.7036723492  -0.000105110067 0.00205227  0.00002521  0.0008674 0.0000
               *** Restarting incremental Fock matrix formation ***
                                   *** Resetting DIIS ***
 10   -857.7037768436  -0.000104494394 0.00110006  0.00001472  0.0005145 0.0000
 11   -857.7037992031  -0.000022359516 0.00061108  0.00000640  0.0004595 0.0000
 12   -857.7038106917  -0.000011488642 0.00125779  0.00001270  0.0003608 0.0000
 13   -857.7038310031  -0.000020311420 0.00138039  0.00001232  0.0002964 0.0000
 14   -857.7038392702  -0.000008267075 0.00042243  0.00000494  0.0001612 0.0000
 15   -857.7038407877  -0.000001517435 0.00019293  0.00000238  0.0000535 0.0000
 16   -857.7038411032  -0.000000315534 0.00023128  0.00000138  0.0000368 0.0000
 17   -857.7038412028  -0.000000099642 0.00004362  0.00000079  0.0000241 0.0000
 18   -857.7038412539  -0.000000051103 0.00007292  0.00000062  0.0000197 0.0000
 19   -857.7038412853  -0.000000031329 0.00008721  0.00000068  0.0000164 0.0000
 20   -857.7038412989  -0.000000013677 0.00003005  0.00000035  0.0000099 0.0000
 21   -857.7038413096  -0.000000010641 0.00005611  0.00000053  0.0000055 0.0000
 22   -857.7038413291  -0.000000019540 0.00013752  0.00000093  0.0000018 0.0000
 23   -857.7038413330  -0.000000003915 0.00002538  0.00000033  0.0000020 0.0000
 24   -857.7038413359  -0.000000002886 0.00005715  0.00000049  0.0000019 0.0000
                 **** Energy Check signals convergence ****

               *****************************************************
               *                     SUCCESS                       *
               *           SCF CONVERGED AFTER  25 CYCLES          *
               *****************************************************

Old exchange energy                            =    -26.079152872 Eh
New exchange energy                            =    -26.079137187 Eh
Exchange energy change after final integration =      0.000015685 Eh
Total energy after final integration           =   -857.703825654 Eh
Final COS-X integration done in                =     8.976 sec

SMD CDS free energy correction energy :                 3.23713     Kcal/mol
Total Energy after SMD CDS correction =              -857.698666962 Eh

----------------
TOTAL SCF ENERGY
----------------

Total Energy       :         -857.69866696 Eh          -23339.16727 eV

Components:
Nuclear Repulsion  :          631.48928592 Eh           17183.69707 eV
Electronic Energy  :        -1489.18795288 Eh          -40522.86434 eV
One Electron Energy:        -2426.16785391 Eh          -66019.38367 eV
Two Electron Energy:          936.97990103 Eh           25496.51932 eV
Max COSX asymmetry :            0.00000033 Eh               0.00001 eV
CPCM Dielectric    :           -0.11416860 Eh              -3.10669 eV
SMD CDS (Gcds)     :            0.00515869 Eh               0.14038 eV

Virial components:
Potential Energy   :        -1712.68185750 Eh          -46604.44267 eV
Kinetic Energy     :          854.98319054 Eh           23265.27540 eV
Virial Ratio       :            2.00317606


DFT components:
N(Alpha)           :       44.000013719576 electrons
N(Beta)            :       43.000014844415 electrons
N(Total)           :       87.000028563991 electrons
E(XC)              :      -62.740343867216 Eh       
DFET-embed. en.    :        0.000000000000 Eh       
CPCM Solvation Model Properties:
Surface-charge          :           -0.04109444
Charge-correction       :           -0.00177857 Eh              -0.04840 eV
Free-energy (cav+disp)  :            0.00515869 Eh               0.14038 eV

---------------
SCF CONVERGENCE
---------------

  Last Energy change         ...   -3.2908e-09  Tolerance :   1.0000e-08
  Last MAX-Density change    ...    0.0000e+00  Tolerance :   1.0000e-07
  Last RMS-Density change    ...    0.0000e+00  Tolerance :   5.0000e-09
  Last DIIS Error            ...    1.1804e-06  Tolerance :   5.0000e-07

             **** THE GBW FILE WAS UPDATED (/burg/berkelbach/users/eav2136/projects/peroxide_dissociation/05_range_separated_functional/wb97x-d-radical-nmf/wb97x-d-radical-nmf_opt.gbw) ****
             **** DENSITY /burg/berkelbach/users/eav2136/projects/peroxide_dissociation/05_range_separated_functional/wb97x-d-radical-nmf/wb97x-d-radical-nmf_opt.scfp WAS UPDATED ****
             **** ENERGY FILE WAS UPDATED (/burg/berkelbach/users/eav2136/projects/peroxide_dissociation/05_range_separated_functional/wb97x-d-radical-nmf/wb97x-d-radical-nmf_opt.en.tmp) ****
----------------------
UHF SPIN CONTAMINATION
----------------------

Warning: in a DFT calculation there is little theoretical justification to 
         calculate <S**2> as in Hartree-Fock theory. We will do it anyways
         but you should keep in mind that the values have only limited relevance

Expectation value of <S**2>     :     0.782275
Ideal value S*(S+1) for S=0.5   :     0.750000
Deviation                       :     0.032275

             **** THE GBW FILE WAS UPDATED (/burg/berkelbach/users/eav2136/projects/peroxide_dissociation/05_range_separated_functional/wb97x-d-radical-nmf/wb97x-d-radical-nmf_opt.gbw) ****
             **** DENSITY /burg/berkelbach/users/eav2136/projects/peroxide_dissociation/05_range_separated_functional/wb97x-d-radical-nmf/wb97x-d-radical-nmf_opt.scfp WAS UPDATED ****
----------------
ORBITAL ENERGIES
----------------
                 SPIN UP ORBITALS
  NO   OCC          E(Eh)            E(eV) 
   0   1.0000     -89.053602     -2423.2717 
   1   1.0000     -19.201439      -522.4977 
   2   1.0000     -19.169767      -521.6359 
   3   1.0000     -10.385808      -282.6122 
   4   1.0000     -10.370014      -282.1824 
   5   1.0000     -10.334632      -281.2196 
   6   1.0000     -10.326346      -280.9942 
   7   1.0000     -10.324763      -280.9511 
   8   1.0000     -10.323688      -280.9218 
   9   1.0000     -10.313183      -280.6360 
  10   1.0000     -10.309632      -280.5394 
  11   1.0000      -8.146261      -221.6710 
  12   1.0000      -6.099747      -165.9826 
  13   1.0000      -6.098158      -165.9393 
  14   1.0000      -6.093742      -165.8191 
  15   1.0000      -1.178590       -32.0711 
  16   1.0000      -1.039711       -28.2920 
  17   1.0000      -1.025264       -27.8988 
  18   1.0000      -0.980251       -26.6740 
  19   1.0000      -0.907002       -24.6808 
  20   1.0000      -0.901972       -24.5439 
  21   1.0000      -0.814705       -22.1693 
  22   1.0000      -0.759686       -20.6721 
  23   1.0000      -0.740514       -20.1504 
  24   1.0000      -0.686251       -18.6738 
  25   1.0000      -0.618928       -16.8419 
  26   1.0000      -0.610702       -16.6180 
  27   1.0000      -0.575011       -15.6468 
  28   1.0000      -0.571477       -15.5507 
  29   1.0000      -0.570520       -15.5246 
  30   1.0000      -0.552053       -15.0221 
  31   1.0000      -0.541994       -14.7484 
  32   1.0000      -0.526327       -14.3221 
  33   1.0000      -0.516316       -14.0497 
  34   1.0000      -0.511436       -13.9169 
  35   1.0000      -0.499588       -13.5945 
  36   1.0000      -0.476015       -12.9530 
  37   1.0000      -0.461643       -12.5620 
  38   1.0000      -0.441837       -12.0230 
  39   1.0000      -0.381421       -10.3790 
  40   1.0000      -0.373889       -10.1740 
  41   1.0000      -0.367226        -9.9927 
  42   1.0000      -0.354300        -9.6410 
  43   1.0000      -0.330685        -8.9984 
  44   0.0000       0.007639         0.2079 
  45   0.0000       0.033336         0.9071 
  46   0.0000       0.071290         1.9399 
  47   0.0000       0.115312         3.1378 
  48   0.0000       0.122601         3.3361 
  49   0.0000       0.141109         3.8398 
  50   0.0000       0.158858         4.3228 
  51   0.0000       0.164661         4.4807 
  52   0.0000       0.179056         4.8724 
  53   0.0000       0.182988         4.9794 
  54   0.0000       0.186156         5.0656 
  55   0.0000       0.198212         5.3936 
  56   0.0000       0.205326         5.5872 
  57   0.0000       0.221118         6.0169 
  58   0.0000       0.222760         6.0616 
  59   0.0000       0.243066         6.6142 
  60   0.0000       0.258042         7.0217 
  61   0.0000       0.270337         7.3562 
  62   0.0000       0.285800         7.7770 
  63   0.0000       0.286669         7.8007 
  64   0.0000       0.294220         8.0061 
  65   0.0000       0.302516         8.2319 
  66   0.0000       0.309365         8.4183 
  67   0.0000       0.312420         8.5014 
  68   0.0000       0.316383         8.6092 
  69   0.0000       0.326614         8.8876 
  70   0.0000       0.334431         9.1003 
  71   0.0000       0.346907         9.4398 
  72   0.0000       0.356447         9.6994 
  73   0.0000       0.363864         9.9012 
  74   0.0000       0.376215        10.2373 
  75   0.0000       0.381019        10.3681 
  76   0.0000       0.397106        10.8058 
  77   0.0000       0.412529        11.2255 
  78   0.0000       0.418072        11.3763 
  79   0.0000       0.422540        11.4979 
  80   0.0000       0.436684        11.8828 
  81   0.0000       0.439110        11.9488 
  82   0.0000       0.450247        12.2518 
  83   0.0000       0.459133        12.4936 
  84   0.0000       0.468666        12.7531 
  85   0.0000       0.475543        12.9402 
  86   0.0000       0.480308        13.0699 
  87   0.0000       0.488870        13.3028 
  88   0.0000       0.501669        13.6511 
  89   0.0000       0.509180        13.8555 
  90   0.0000       0.511053        13.9065 
  91   0.0000       0.522767        14.2252 
  92   0.0000       0.536138        14.5891 
  93   0.0000       0.540213        14.6999 
  94   0.0000       0.548675        14.9302 
  95   0.0000       0.553028        15.0487 
  96   0.0000       0.559977        15.2377 
  97   0.0000       0.581929        15.8351 
  98   0.0000       0.589015        16.0279 
  99   0.0000       0.593871        16.1600 
 100   0.0000       0.616825        16.7847 
 101   0.0000       0.627337        17.0707 
 102   0.0000       0.631675        17.1887 
 103   0.0000       0.643278        17.5045 
 104   0.0000       0.650279        17.6950 
 105   0.0000       0.657308        17.8863 
 106   0.0000       0.672851        18.3092 
 107   0.0000       0.694323        18.8935 
 108   0.0000       0.700288        19.0558 
 109   0.0000       0.710014        19.3205 
 110   0.0000       0.731068        19.8934 
 111   0.0000       0.738359        20.0918 
 112   0.0000       0.748200        20.3595 
 113   0.0000       0.760946        20.7064 
 114   0.0000       0.765656        20.8346 
 115   0.0000       0.772699        21.0262 
 116   0.0000       0.791061        21.5259 
 117   0.0000       0.813460        22.1354 
 118   0.0000       0.823200        22.4004 
 119   0.0000       0.842461        22.9245 
 120   0.0000       0.848482        23.0884 
 121   0.0000       0.857586        23.3361 
 122   0.0000       0.862921        23.4813 
 123   0.0000       0.888048        24.1650 
 124   0.0000       0.913014        24.8444 
 125   0.0000       0.921320        25.0704 
 126   0.0000       0.925292        25.1785 
 127   0.0000       0.927948        25.2507 
 128   0.0000       0.946096        25.7446 
 129   0.0000       0.977277        26.5931 
 130   0.0000       0.982796        26.7432 
 131   0.0000       1.008946        27.4548 
 132   0.0000       1.020030        27.7564 
 133   0.0000       1.025543        27.9064 
 134   0.0000       1.038194        28.2507 
 135   0.0000       1.046505        28.4769 
 136   0.0000       1.071314        29.1519 
 137   0.0000       1.091452        29.6999 
 138   0.0000       1.097652        29.8686 
 139   0.0000       1.105471        30.0814 
 140   0.0000       1.116004        30.3680 
 141   0.0000       1.157674        31.5019 
 142   0.0000       1.206131        32.8205 
 143   0.0000       1.212529        32.9946 
 144   0.0000       1.229708        33.4620 
 145   0.0000       1.253244        34.1025 
 146   0.0000       1.280265        34.8378 
 147   0.0000       1.290065        35.1044 
 148   0.0000       1.308704        35.6116 
 149   0.0000       1.316062        35.8119 
 150   0.0000       1.327198        36.1149 
 151   0.0000       1.334875        36.3238 
 152   0.0000       1.372543        37.3488 
 153   0.0000       1.380841        37.5746 
 154   0.0000       1.403243        38.1842 
 155   0.0000       1.427713        38.8501 
 156   0.0000       1.436904        39.1002 
 157   0.0000       1.456373        39.6299 
 158   0.0000       1.494963        40.6800 
 159   0.0000       1.507560        41.0228 
 160   0.0000       1.530041        41.6345 
 161   0.0000       1.547189        42.1011 
 162   0.0000       1.548251        42.1300 
 163   0.0000       1.558235        42.4017 
 164   0.0000       1.568780        42.6887 
 165   0.0000       1.584757        43.1234 
 166   0.0000       1.592236        43.3270 
 167   0.0000       1.598205        43.4894 
 168   0.0000       1.608881        43.7799 
 169   0.0000       1.615297        43.9545 
 170   0.0000       1.617765        44.0216 
 171   0.0000       1.636473        44.5307 
 172   0.0000       1.648663        44.8624 
 173   0.0000       1.655827        45.0573 
 174   0.0000       1.671739        45.4903 
 175   0.0000       1.673611        45.5413 
 176   0.0000       1.690705        46.0064 
 177   0.0000       1.713872        46.6368 
 178   0.0000       1.722083        46.8603 
 179   0.0000       1.735740        47.2319 
 180   0.0000       1.737125        47.2696 
 181   0.0000       1.748847        47.5886 
 182   0.0000       1.763653        47.9914 
 183   0.0000       1.777341        48.3639 
 184   0.0000       1.794155        48.8215 
 185   0.0000       1.820690        49.5435 
 186   0.0000       1.833892        49.9027 
 187   0.0000       1.854337        50.4591 
 188   0.0000       1.871980        50.9392 
 189   0.0000       1.876166        51.0531 
 190   0.0000       1.889829        51.4249 
 191   0.0000       1.895862        51.5890 
 192   0.0000       1.913068        52.0572 
 193   0.0000       1.929843        52.5137 
 194   0.0000       1.935070        52.6559 
 195   0.0000       1.950126        53.0656 
 196   0.0000       1.974119        53.7185 
 197   0.0000       1.997219        54.3471 
 198   0.0000       2.022372        55.0315 
 199   0.0000       2.044183        55.6251 
 200   0.0000       2.069149        56.3044 
 201   0.0000       2.099535        57.1313 
 202   0.0000       2.124956        57.8230 
 203   0.0000       2.138065        58.1797 
 204   0.0000       2.140542        58.2471 
 205   0.0000       2.160379        58.7869 
 206   0.0000       2.168222        59.0003 
 207   0.0000       2.171362        59.0858 
 208   0.0000       2.183553        59.4175 
 209   0.0000       2.212551        60.2066 
 210   0.0000       2.230806        60.7033 
 211   0.0000       2.244954        61.0883 
 212   0.0000       2.246219        61.1227 
 213   0.0000       2.253159        61.3116 
 214   0.0000       2.287817        62.2547 
 215   0.0000       2.303077        62.6699 
 216   0.0000       2.318069        63.0779 
 217   0.0000       2.350127        63.9502 
 218   0.0000       2.382935        64.8429 
 219   0.0000       2.388055        64.9823 
 220   0.0000       2.411727        65.6264 
 221   0.0000       2.437733        66.3341 
 222   0.0000       2.445362        66.5417 
 223   0.0000       2.484637        67.6104 
 224   0.0000       2.490158        67.7606 
 225   0.0000       2.500920        68.0535 
 226   0.0000       2.530284        68.8525 
 227   0.0000       2.598657        70.7130 
 228   0.0000       2.615453        71.1701 
 229   0.0000       2.621569        71.3365 
 230   0.0000       2.647349        72.0380 
 231   0.0000       2.664301        72.4993 
 232   0.0000       2.667128        72.5762 
 233   0.0000       2.688203        73.1497 
 234   0.0000       2.693614        73.2970 
 235   0.0000       2.705993        73.6338 
 236   0.0000       2.739286        74.5398 
 237   0.0000       2.753320        74.9216 
 238   0.0000       2.771944        75.4284 
 239   0.0000       2.773799        75.4789 
 240   0.0000       2.778756        75.6138 
 241   0.0000       2.788765        75.8861 
 242   0.0000       2.816870        76.6509 
 243   0.0000       2.820795        76.7577 
 244   0.0000       2.835607        77.1608 
 245   0.0000       2.844655        77.4070 
 246   0.0000       2.869516        78.0835 
 247   0.0000       2.878476        78.3273 
 248   0.0000       2.883606        78.4669 
 249   0.0000       2.911541        79.2271 
 250   0.0000       2.929413        79.7134 
 251   0.0000       2.948821        80.2415 
 252   0.0000       2.965472        80.6946 
 253   0.0000       2.982479        81.1574 
 254   0.0000       2.983958        81.1976 
 255   0.0000       3.015594        82.0585 
 256   0.0000       3.026774        82.3627 
 257   0.0000       3.043243        82.8108 
 258   0.0000       3.050901        83.0192 
 259   0.0000       3.061362        83.3039 
 260   0.0000       3.069419        83.5231 
 261   0.0000       3.101435        84.3943 
 262   0.0000       3.107594        84.5619 
 263   0.0000       3.115369        84.7735 
 264   0.0000       3.128184        85.1222 
 265   0.0000       3.139625        85.4335 
 266   0.0000       3.150359        85.7256 
 267   0.0000       3.184242        86.6476 
 268   0.0000       3.202489        87.1441 
 269   0.0000       3.210171        87.3532 
 270   0.0000       3.225479        87.7698 
 271   0.0000       3.231690        87.9388 
 272   0.0000       3.236641        88.0735 
 273   0.0000       3.258886        88.6788 
 274   0.0000       3.264104        88.8208 
 275   0.0000       3.282121        89.3111 
 276   0.0000       3.322421        90.4077 
 277   0.0000       3.331719        90.6607 
 278   0.0000       3.345265        91.0293 
 279   0.0000       3.355935        91.3196 
 280   0.0000       3.371880        91.7535 
 281   0.0000       3.376237        91.8721 
 282   0.0000       3.409573        92.7792 
 283   0.0000       3.414219        92.9056 
 284   0.0000       3.426326        93.2351 
 285   0.0000       3.435002        93.4711 
 286   0.0000       3.442907        93.6863 
 287   0.0000       3.454790        94.0096 
 288   0.0000       3.456895        94.0669 
 289   0.0000       3.470946        94.4492 
 290   0.0000       3.488452        94.9256 
 291   0.0000       3.498849        95.2085 
 292   0.0000       3.517969        95.7288 
 293   0.0000       3.542730        96.4026 
 294   0.0000       3.546668        96.5098 
 295   0.0000       3.566810        97.0578 
 296   0.0000       3.572530        97.2135 
 297   0.0000       3.588543        97.6492 
 298   0.0000       3.591804        97.7380 
 299   0.0000       3.616366        98.4063 
 300   0.0000       3.625919        98.6663 
 301   0.0000       3.633220        98.8649 
 302   0.0000       3.649962        99.3205 
 303   0.0000       3.669659        99.8565 
 304   0.0000       3.729008       101.4715 
 305   0.0000       3.732141       101.5567 
 306   0.0000       3.759029       102.2884 
 307   0.0000       3.783369       102.9507 
 308   0.0000       3.815211       103.8172 
 309   0.0000       3.868587       105.2696 
 310   0.0000       3.874286       105.4247 
 311   0.0000       3.917260       106.5941 
 312   0.0000       3.930613       106.9574 
 313   0.0000       3.975557       108.1804 
 314   0.0000       3.989794       108.5678 
 315   0.0000       4.031921       109.7141 
 316   0.0000       4.054978       110.3416 
 317   0.0000       4.109792       111.8331 
 318   0.0000       4.139582       112.6437 
 319   0.0000       4.189945       114.0142 
 320   0.0000       4.236958       115.2935 
 321   0.0000       4.252888       115.7270 
 322   0.0000       4.270003       116.1927 
 323   0.0000       4.273343       116.2836 
 324   0.0000       4.277945       116.4088 
 325   0.0000       4.305802       117.1668 
 326   0.0000       4.326920       117.7415 
 327   0.0000       4.349704       118.3615 
 328   0.0000       4.363059       118.7249 
 329   0.0000       4.384122       119.2980 
 330   0.0000       4.409847       119.9981 
 331   0.0000       4.445339       120.9638 
 332   0.0000       4.490051       122.1805 
 333   0.0000       4.535011       123.4039 
 334   0.0000       4.589203       124.8786 
 335   0.0000       4.613531       125.5406 
 336   0.0000       4.661956       126.8583 
 337   0.0000       4.735381       128.8563 
 338   0.0000       4.741642       129.0266 
 339   0.0000       4.769340       129.7803 
 340   0.0000       4.774815       129.9293 
 341   0.0000       4.945797       134.5820 
 342   0.0000       5.006233       136.2265 
 343   0.0000       5.021383       136.6388 
 344   0.0000       5.057070       137.6099 
 345   0.0000       5.205065       141.6370 
 346   0.0000       5.254164       142.9731 
 347   0.0000       5.282447       143.7427 
 348   0.0000       5.302247       144.2815 
 349   0.0000       5.310823       144.5148 
 350   0.0000       5.324912       144.8982 
 351   0.0000       5.366681       146.0348 
 352   0.0000       5.436291       147.9290 
 353   0.0000       5.465687       148.7289 
 354   0.0000       5.552241       151.0842 
 355   0.0000       5.577391       151.7685 
 356   0.0000       5.645100       153.6110 
 357   0.0000       5.722712       155.7229 
 358   0.0000       5.763769       156.8401 
 359   0.0000       5.900750       160.5676 
 360   0.0000       5.997655       163.2045 
 361   0.0000       6.218599       169.2167 
 362   0.0000       6.345088       172.6586 
 363   0.0000       6.446824       175.4270 
 364   0.0000       6.508950       177.1175 
 365   0.0000       6.550992       178.2615 
 366   0.0000       6.594256       179.4388 
 367   0.0000       6.643276       180.7727 
 368   0.0000       6.873062       187.0255 
 369   0.0000       6.892890       187.5651 
 370   0.0000       6.938338       188.8018 
 371   0.0000       7.041579       191.6111 
 372   0.0000       7.145448       194.4375 
 373   0.0000       7.243505       197.1058 
 374   0.0000       7.258148       197.5043 
 375   0.0000       8.910514       242.4674 
 376   0.0000       9.377409       255.1723 
 377   0.0000       9.544318       259.7141 
 378   0.0000      20.099786       546.9430 
 379   0.0000      22.033674       599.5668 
 380   0.0000      22.277499       606.2016 
 381   0.0000      22.748983       619.0313 
 382   0.0000      22.761229       619.3645 
 383   0.0000      22.825259       621.1069 
 384   0.0000      22.887172       622.7916 
 385   0.0000      23.270643       633.2264 
 386   0.0000      23.430679       637.5812 
 387   0.0000      43.841574      1192.9899 
 388   0.0000      43.965842      1196.3714 

                 SPIN DOWN ORBITALS
  NO   OCC          E(Eh)            E(eV) 
   0   1.0000     -89.049960     -2423.1726 
   1   1.0000     -19.200992      -522.4856 
   2   1.0000     -19.168931      -521.6131 
   3   1.0000     -10.386058      -282.6190 
   4   1.0000     -10.369552      -282.1698 
   5   1.0000     -10.332128      -281.1515 
   6   1.0000     -10.324874      -280.9541 
   7   1.0000     -10.324748      -280.9507 
   8   1.0000     -10.322434      -280.8877 
   9   1.0000     -10.313978      -280.6576 
  10   1.0000     -10.310674      -280.5677 
  11   1.0000      -8.143453      -221.5946 
  12   1.0000      -6.095897      -165.8778 
  13   1.0000      -6.091611      -165.7612 
  14   1.0000      -6.089331      -165.6991 
  15   1.0000      -1.177536       -32.0424 
  16   1.0000      -1.033273       -28.1168 
  17   1.0000      -1.022478       -27.8230 
  18   1.0000      -0.969719       -26.3874 
  19   1.0000      -0.902115       -24.5478 
  20   1.0000      -0.894599       -24.3433 
  21   1.0000      -0.809016       -22.0144 
  22   1.0000      -0.756286       -20.5796 
  23   1.0000      -0.732966       -19.9450 
  24   1.0000      -0.683948       -18.6112 
  25   1.0000      -0.614295       -16.7158 
  26   1.0000      -0.608653       -16.5623 
  27   1.0000      -0.573268       -15.5994 
  28   1.0000      -0.569847       -15.5063 
  29   1.0000      -0.555210       -15.1080 
  30   1.0000      -0.550788       -14.9877 
  31   1.0000      -0.533509       -14.5175 
  32   1.0000      -0.525241       -14.2925 
  33   1.0000      -0.514103       -13.9895 
  34   1.0000      -0.500803       -13.6275 
  35   1.0000      -0.495361       -13.4795 
  36   1.0000      -0.471976       -12.8431 
  37   1.0000      -0.457459       -12.4481 
  38   1.0000      -0.399257       -10.8643 
  39   1.0000      -0.377969       -10.2850 
  40   1.0000      -0.369481       -10.0541 
  41   1.0000      -0.351671        -9.5695 
  42   1.0000      -0.328470        -8.9381 
  43   0.0000      -0.134882        -3.6703 
  44   0.0000       0.029028         0.7899 
  45   0.0000       0.043793         1.1917 
  46   0.0000       0.075135         2.0445 
  47   0.0000       0.123325         3.3558 
  48   0.0000       0.127019         3.4564 
  49   0.0000       0.142948         3.8898 
  50   0.0000       0.160542         4.3686 
  51   0.0000       0.165315         4.4984 
  52   0.0000       0.179961         4.8970 
  53   0.0000       0.183864         5.0032 
  54   0.0000       0.189267         5.1502 
  55   0.0000       0.203114         5.5270 
  56   0.0000       0.209987         5.7140 
  57   0.0000       0.221999         6.0409 
  58   0.0000       0.223769         6.0891 
  59   0.0000       0.244708         6.6588 
  60   0.0000       0.257693         7.0122 
  61   0.0000       0.272109         7.4045 
  62   0.0000       0.286657         7.8003 
  63   0.0000       0.291913         7.9434 
  64   0.0000       0.295773         8.0484 
  65   0.0000       0.307260         8.3610 
  66   0.0000       0.309876         8.4322 
  67   0.0000       0.313714         8.5366 
  68   0.0000       0.319183         8.6854 
  69   0.0000       0.327945         8.9238 
  70   0.0000       0.338572         9.2130 
  71   0.0000       0.350862         9.5474 
  72   0.0000       0.358963         9.7679 
  73   0.0000       0.367580        10.0024 
  74   0.0000       0.380967        10.3666 
  75   0.0000       0.384341        10.4585 
  76   0.0000       0.398620        10.8470 
  77   0.0000       0.415955        11.3187 
  78   0.0000       0.421857        11.4793 
  79   0.0000       0.425363        11.5747 
  80   0.0000       0.438613        11.9353 
  81   0.0000       0.441422        12.0117 
  82   0.0000       0.451781        12.2936 
  83   0.0000       0.465020        12.6538 
  84   0.0000       0.473797        12.8927 
  85   0.0000       0.480729        13.0813 
  86   0.0000       0.483159        13.1474 
  87   0.0000       0.490667        13.3517 
  88   0.0000       0.503387        13.6979 
  89   0.0000       0.511067        13.9068 
  90   0.0000       0.512214        13.9381 
  91   0.0000       0.524491        14.2721 
  92   0.0000       0.537711        14.6319 
  93   0.0000       0.541518        14.7354 
  94   0.0000       0.550083        14.9685 
  95   0.0000       0.554673        15.0934 
  96   0.0000       0.562190        15.2980 
  97   0.0000       0.584321        15.9002 
  98   0.0000       0.592150        16.1132 
  99   0.0000       0.595588        16.2068 
 100   0.0000       0.618537        16.8313 
 101   0.0000       0.633552        17.2398 
 102   0.0000       0.635294        17.2872 
 103   0.0000       0.645369        17.5614 
 104   0.0000       0.652060        17.7435 
 105   0.0000       0.658749        17.9255 
 106   0.0000       0.674253        18.3474 
 107   0.0000       0.695999        18.9391 
 108   0.0000       0.701719        19.0947 
 109   0.0000       0.712520        19.3887 
 110   0.0000       0.733839        19.9688 
 111   0.0000       0.740206        20.1420 
 112   0.0000       0.751369        20.4458 
 113   0.0000       0.763463        20.7749 
 114   0.0000       0.766950        20.8698 
 115   0.0000       0.776110        21.1190 
 116   0.0000       0.793310        21.5871 
 117   0.0000       0.814701        22.1691 
 118   0.0000       0.825574        22.4650 
 119   0.0000       0.844496        22.9799 
 120   0.0000       0.849007        23.1027 
 121   0.0000       0.862907        23.4809 
 122   0.0000       0.863970        23.5098 
 123   0.0000       0.891361        24.2552 
 124   0.0000       0.914552        24.8862 
 125   0.0000       0.922983        25.1157 
 126   0.0000       0.928697        25.2711 
 127   0.0000       0.930499        25.3202 
 128   0.0000       0.949622        25.8405 
 129   0.0000       0.980617        26.6839 
 130   0.0000       0.985047        26.8045 
 131   0.0000       1.010578        27.4992 
 132   0.0000       1.021957        27.8089 
 133   0.0000       1.027462        27.9587 
 134   0.0000       1.041003        28.3271 
 135   0.0000       1.048807        28.5395 
 136   0.0000       1.074420        29.2365 
 137   0.0000       1.093077        29.7441 
 138   0.0000       1.099685        29.9240 
 139   0.0000       1.107473        30.1359 
 140   0.0000       1.117047        30.3964 
 141   0.0000       1.158645        31.5283 
 142   0.0000       1.207890        32.8684 
 143   0.0000       1.218234        33.1498 
 144   0.0000       1.230939        33.4956 
 145   0.0000       1.254929        34.1484 
 146   0.0000       1.283011        34.9125 
 147   0.0000       1.292575        35.1727 
 148   0.0000       1.311121        35.6774 
 149   0.0000       1.318046        35.8659 
 150   0.0000       1.330501        36.2048 
 151   0.0000       1.337682        36.4002 
 152   0.0000       1.374781        37.4097 
 153   0.0000       1.383143        37.6372 
 154   0.0000       1.405164        38.2364 
 155   0.0000       1.430410        38.9234 
 156   0.0000       1.438330        39.1390 
 157   0.0000       1.459713        39.7208 
 158   0.0000       1.501287        40.8521 
 159   0.0000       1.512062        41.1453 
 160   0.0000       1.531210        41.6663 
 161   0.0000       1.553239        42.2658 
 162   0.0000       1.556897        42.3653 
 163   0.0000       1.562751        42.5246 
 164   0.0000       1.572604        42.7927 
 165   0.0000       1.586852        43.1804 
 166   0.0000       1.596604        43.4458 
 167   0.0000       1.601090        43.5679 
 168   0.0000       1.610696        43.8293 
 169   0.0000       1.618277        44.0356 
 170   0.0000       1.621479        44.1227 
 171   0.0000       1.639421        44.6109 
 172   0.0000       1.650814        44.9209 
 173   0.0000       1.659885        45.1678 
 174   0.0000       1.674072        45.5538 
 175   0.0000       1.676429        45.6180 
 176   0.0000       1.693239        46.0754 
 177   0.0000       1.716154        46.6989 
 178   0.0000       1.724417        46.9238 
 179   0.0000       1.738180        47.2983 
 180   0.0000       1.745903        47.5084 
 181   0.0000       1.752027        47.6751 
 182   0.0000       1.766989        48.0822 
 183   0.0000       1.781136        48.4672 
 184   0.0000       1.798488        48.9394 
 185   0.0000       1.825080        49.6630 
 186   0.0000       1.852792        50.4170 
 187   0.0000       1.865711        50.7686 
 188   0.0000       1.878544        51.1178 
 189   0.0000       1.883317        51.2477 
 190   0.0000       1.899234        51.6808 
 191   0.0000       1.903131        51.7868 
 192   0.0000       1.917476        52.1772 
 193   0.0000       1.935074        52.6560 
 194   0.0000       1.939272        52.7703 
 195   0.0000       1.953186        53.1489 
 196   0.0000       1.977276        53.8044 
 197   0.0000       1.999511        54.4095 
 198   0.0000       2.024217        55.0818 
 199   0.0000       2.047186        55.7068 
 200   0.0000       2.071796        56.3764 
 201   0.0000       2.103302        57.2338 
 202   0.0000       2.129567        57.9485 
 203   0.0000       2.141742        58.2798 
 204   0.0000       2.147412        58.4340 
 205   0.0000       2.162248        58.8378 
 206   0.0000       2.171220        59.0819 
 207   0.0000       2.174075        59.1596 
 208   0.0000       2.185927        59.4821 
 209   0.0000       2.214506        60.2598 
 210   0.0000       2.236198        60.8500 
 211   0.0000       2.249341        61.2077 
 212   0.0000       2.250801        61.2474 
 213   0.0000       2.256775        61.4100 
 214   0.0000       2.291406        62.3523 
 215   0.0000       2.306580        62.7652 
 216   0.0000       2.319922        63.1283 
 217   0.0000       2.352060        64.0028 
 218   0.0000       2.385845        64.9221 
 219   0.0000       2.391136        65.0661 
 220   0.0000       2.413720        65.6807 
 221   0.0000       2.440104        66.3986 
 222   0.0000       2.447794        66.6079 
 223   0.0000       2.487241        67.6813 
 224   0.0000       2.491634        67.8008 
 225   0.0000       2.503421        68.1215 
 226   0.0000       2.533117        68.9296 
 227   0.0000       2.600506        70.7634 
 228   0.0000       2.617241        71.2187 
 229   0.0000       2.624483        71.4158 
 230   0.0000       2.648457        72.0682 
 231   0.0000       2.667235        72.5791 
 232   0.0000       2.668604        72.6164 
 233   0.0000       2.690656        73.2165 
 234   0.0000       2.696046        73.3631 
 235   0.0000       2.710356        73.7525 
 236   0.0000       2.741370        74.5965 
 237   0.0000       2.756489        75.0079 
 238   0.0000       2.773635        75.4745 
 239   0.0000       2.776682        75.5574 
 240   0.0000       2.782223        75.7081 
 241   0.0000       2.792140        75.9780 
 242   0.0000       2.819985        76.7357 
 243   0.0000       2.823922        76.8428 
 244   0.0000       2.836834        77.1942 
 245   0.0000       2.846763        77.4644 
 246   0.0000       2.873047        78.1796 
 247   0.0000       2.880705        78.3880 
 248   0.0000       2.886484        78.5452 
 249   0.0000       2.913803        79.2886 
 250   0.0000       2.931066        79.7584 
 251   0.0000       2.952461        80.3405 
 252   0.0000       2.967180        80.7411 
 253   0.0000       2.985270        81.2333 
 254   0.0000       2.986631        81.2704 
 255   0.0000       3.019101        82.1539 
 256   0.0000       3.029318        82.4319 
 257   0.0000       3.044956        82.8575 
 258   0.0000       3.053221        83.0824 
 259   0.0000       3.063522        83.3627 
 260   0.0000       3.074427        83.6594 
 261   0.0000       3.103336        84.4461 
 262   0.0000       3.108936        84.5984 
 263   0.0000       3.116771        84.8117 
 264   0.0000       3.130376        85.1819 
 265   0.0000       3.141546        85.4858 
 266   0.0000       3.153565        85.8129 
 267   0.0000       3.186012        86.6958 
 268   0.0000       3.205243        87.2191 
 269   0.0000       3.212338        87.4121 
 270   0.0000       3.230100        87.8955 
 271   0.0000       3.235651        88.0466 
 272   0.0000       3.239105        88.1405 
 273   0.0000       3.261327        88.7452 
 274   0.0000       3.268136        88.9305 
 275   0.0000       3.287882        89.4678 
 276   0.0000       3.324426        90.4622 
 277   0.0000       3.333109        90.6985 
 278   0.0000       3.347185        91.0815 
[...]
      pz      :     0.909394  p :     2.892154
      px      :     0.989298
      py      :     0.993462
      dz2     :     0.040949  d :     0.378066
      dxz     :     0.076795
      dyz     :     0.053770
      dx2y2   :     0.090846
      dxy     :     0.115705
      f0      :     0.004771  f :     0.043462
      f+1     :     0.002464
      f-1     :     0.005823
      f+2     :     0.005770
      f-2     :     0.007431
      f+3     :     0.010858
      f-3     :     0.006345
  4 C s       :     2.756413  s :     2.756413
      pz      :     0.914042  p :     2.893555
      px      :     0.990768
      py      :     0.988745
      dz2     :     0.063015  d :     0.374195
      dxz     :     0.054442
      dyz     :     0.065343
      dx2y2   :     0.083756
      dxy     :     0.107639
      f0      :     0.003378  f :     0.043171
      f+1     :     0.004725
      f-1     :     0.005880
      f+2     :     0.006964
      f-2     :     0.007767
      f+3     :     0.008561
      f-3     :     0.005894
  5 C s       :     2.731234  s :     2.731234
      pz      :     0.825606  p :     2.770729
      px      :     1.031781
      py      :     0.913343
      dz2     :     0.064804  d :     0.482865
      dxz     :     0.096241
      dyz     :     0.074282
      dx2y2   :     0.134267
      dxy     :     0.113270
      f0      :     0.005674  f :     0.053912
      f+1     :     0.006020
      f-1     :     0.005111
      f+2     :     0.007194
      f-2     :     0.008998
      f+3     :     0.013926
      f-3     :     0.006990
  6 C s       :     2.755261  s :     2.755261
      pz      :     0.922786  p :     2.906171
      px      :     0.998330
      py      :     0.985055
      dz2     :     0.040359  d :     0.372449
      dxz     :     0.075630
      dyz     :     0.053763
      dx2y2   :     0.091563
      dxy     :     0.111134
      f0      :     0.004548  f :     0.043338
      f+1     :     0.002463
      f-1     :     0.005928
      f+2     :     0.005965
      f-2     :     0.007465
      f+3     :     0.010647
      f-3     :     0.006321
  7 C s       :     2.766553  s :     2.766553
      pz      :     0.911042  p :     2.884587
      px      :     0.983200
      py      :     0.990345
      dz2     :     0.071132  d :     0.384040
      dxz     :     0.057343
      dyz     :     0.063340
      dx2y2   :     0.080441
      dxy     :     0.111784
      f0      :     0.003435  f :     0.043308
      f+1     :     0.005255
      f-1     :     0.005820
      f+2     :     0.006968
      f-2     :     0.007649
      f+3     :     0.008172
      f-3     :     0.006009
  8 C s       :     2.756351  s :     2.756351
      pz      :     0.956190  p :     2.695271
      px      :     0.791402
      py      :     0.947679
      dz2     :     0.247918  d :     1.025869
      dxz     :     0.190868
      dyz     :     0.298888
      dx2y2   :     0.162486
      dxy     :     0.125709
      f0      :     0.024377  f :     0.158915
      f+1     :     0.022424
      f-1     :     0.042952
      f+2     :     0.014440
      f-2     :     0.024302
      f+3     :     0.013877
      f-3     :     0.016542
  9 O s       :     3.423270  s :     3.423270
      pz      :     1.605292  p :     4.620048
      px      :     1.472964
      py      :     1.541792
      dz2     :     0.009515  d :     0.059732
      dxz     :     0.008492
      dyz     :     0.014703
      dx2y2   :     0.011685
      dxy     :     0.015336
      f0      :     0.000529  f :     0.005293
      f+1     :     0.000417
      f-1     :     0.000952
      f+2     :     0.000635
      f-2     :     0.001207
      f+3     :     0.000924
      f-3     :     0.000630
 10 O s       :     3.423081  s :     3.423081
      pz      :     1.492041  p :     4.620409
      px      :     1.491302
      py      :     1.637067
      dz2     :     0.022911  d :     0.059754
      dxz     :     0.017284
      dyz     :     0.014318
      dx2y2   :     0.002472
      dxy     :     0.002769
      f0      :     0.001467  f :     0.005298
      f+1     :     0.001560
      f-1     :     0.001124
      f+2     :     0.000502
      f-2     :     0.000557
      f+3     :     0.000044
      f-3     :     0.000043
 11 H s       :     0.791550  s :     0.791550
      pz      :     0.021276  p :     0.066926
      px      :     0.012945
      py      :     0.032705
 12 H s       :     0.790277  s :     0.790277
      pz      :     0.024570  p :     0.067395
      px      :     0.014430
      py      :     0.028395
 13 H s       :     0.790355  s :     0.790355
      pz      :     0.024713  p :     0.067434
      px      :     0.028083
      py      :     0.014637
 14 H s       :     0.764133  s :     0.764133
      pz      :     0.018946  p :     0.062428
      px      :     0.028781
      py      :     0.014701
 15 H s       :     0.767949  s :     0.767949
      pz      :     0.011131  p :     0.060600
      px      :     0.032242
      py      :     0.017227
 16 H s       :     0.768189  s :     0.768189
      pz      :     0.019290  p :     0.060676
      px      :     0.026747
      py      :     0.014639
 17 H s       :     0.767284  s :     0.767284
      pz      :     0.011105  p :     0.061258
      px      :     0.033848
      py      :     0.016305

SPIN
  0 C s       :    -0.001075  s :    -0.001075
      pz      :    -0.000688  p :    -0.007132
      px      :    -0.005699
      py      :    -0.000745
      dz2     :     0.005454  d :     0.027404
      dxz     :     0.011271
      dyz     :     0.001050
      dx2y2   :     0.002138
      dxy     :     0.007491
      f0      :     0.000053  f :     0.002065
      f+1     :     0.001182
      f-1     :     0.000149
      f+2     :     0.000204
      f-2     :     0.000049
      f+3     :     0.000048
      f-3     :     0.000381
  1 S s       :     0.007302  s :     0.007302
      pz      :     0.259241  p :     0.423260
      px      :     0.031653
      py      :     0.132366
      dz2     :    -0.001336  d :     0.006247
      dxz     :     0.002846
      dyz     :     0.004109
      dx2y2   :     0.001491
      dxy     :    -0.000863
      f0      :    -0.000196  f :     0.001071
      f+1     :     0.000031
      f-1     :     0.001367
      f+2     :    -0.000261
      f-2     :     0.000184
      f+3     :    -0.000147
      f-3     :     0.000093
  2 C s       :     0.000082  s :     0.000082
      pz      :     0.033993  p :     0.051683
      px      :     0.002195
      py      :     0.015496
      dz2     :     0.015605  d :     0.036595
      dxz     :     0.005579
      dyz     :     0.004455
      dx2y2   :     0.007401
      dxy     :     0.003556
      f0      :     0.000278  f :     0.003816
      f+1     :     0.000989
      f-1     :     0.000865
      f+2     :     0.000259
      f-2     :     0.000123
      f+3     :     0.000330
      f-3     :     0.000973
  3 C s       :     0.002205  s :     0.002205
      pz      :     0.059902  p :     0.097320
      px      :     0.006810
      py      :     0.030608
      dz2     :    -0.001061  d :     0.000387
      dxz     :     0.001230
      dyz     :     0.000055
      dx2y2   :     0.000435
      dxy     :    -0.000272
      f0      :     0.000167  f :    -0.000078
      f+1     :    -0.000044
      f-1     :    -0.000305
      f+2     :     0.000038
      f-2     :    -0.000067
      f+3     :     0.000175
      f-3     :    -0.000042
  4 C s       :    -0.001865  s :    -0.001865
      pz      :    -0.026759  p :    -0.043717
      px      :    -0.004998
      py      :    -0.011960
      dz2     :     0.018395  d :     0.029717
      dxz     :     0.001808
      dyz     :     0.001882
      dx2y2   :     0.002365
      dxy     :     0.005267
      f0      :     0.000064  f :     0.003831
      f+1     :     0.001577
      f-1     :     0.000673
      f+2     :     0.000261
      f-2     :     0.000126
      f+3     :     0.000107
      f-3     :     0.001023
  5 C s       :     0.005543  s :     0.005543
      pz      :     0.125406  p :     0.206053
      px      :     0.017637
      py      :     0.063010
      dz2     :    -0.002525  d :    -0.011561
      dxz     :    -0.003368
      dyz     :    -0.001305
      dx2y2   :    -0.002201
      dxy     :    -0.002162
      f0      :    -0.000330  f :    -0.002037
      f+1     :    -0.000417
      f-1     :    -0.000140
      f+2     :    -0.000296
      f-2     :    -0.000351
      f+3     :    -0.000338
      f-3     :    -0.000164
  6 C s       :    -0.002431  s :    -0.002431
      pz      :    -0.036245  p :    -0.064719
      px      :    -0.007229
      py      :    -0.021245
      dz2     :     0.006552  d :     0.033024
      dxz     :     0.009313
      dyz     :     0.004995
      dx2y2   :     0.010429
      dxy     :     0.001734
      f0      :     0.001013  f :     0.004364
      f+1     :     0.000071
      f-1     :     0.001033
      f+2     :     0.000361
      f-2     :     0.000431
      f+3     :     0.000982
      f-3     :     0.000472
  7 C s       :     0.002979  s :     0.002979
      pz      :     0.076073  p :     0.122885
      px      :     0.009461
      py      :     0.037351
      dz2     :    -0.002001  d :    -0.004535
      dxz     :     0.000162
      dyz     :    -0.001143
      dx2y2   :    -0.001744
      dxy     :     0.000191
      f0      :    -0.000131  f :    -0.000471
      f+1     :     0.000363
      f-1     :    -0.000559
      f+2     :    -0.000026
      f-2     :    -0.000151
      f+3     :    -0.000068
      f-3     :     0.000101
  8 C s       :    -0.001548  s :    -0.001548
      pz      :    -0.001977  p :    -0.008717
      px      :    -0.003286
      py      :    -0.003454
      dz2     :     0.002215  d :     0.009481
      dxz     :     0.001829
      dyz     :     0.000304
      dx2y2   :     0.002460
      dxy     :     0.002672
      f0      :     0.000048  f :     0.005496
      f+1     :     0.000303
      f-1     :     0.004508
      f+2     :     0.000098
      f-2     :     0.000245
      f+3     :     0.000041
      f-3     :     0.000253
  9 O s       :     0.000312  s :     0.000312
      pz      :     0.017936  p :     0.023848
      px      :     0.004646
      py      :     0.001266
      dz2     :    -0.000015  d :    -0.000160
      dxz     :     0.000002
      dyz     :     0.000037
      dx2y2   :    -0.000124
      dxy     :    -0.000060
      f0      :    -0.000003  f :    -0.000023
      f+1     :     0.000003
      f-1     :    -0.000002
      f+2     :    -0.000008
      f-2     :    -0.000004
      f+3     :     0.000001
      f-3     :    -0.000010
 10 O s       :     0.000261  s :     0.000261
      pz      :     0.000232  p :     0.022232
      px      :     0.000960
      py      :     0.021040
      dz2     :    -0.000094  d :    -0.000173
      dxz     :    -0.000133
      dyz     :     0.000033
      dx2y2   :     0.000004
      dxy     :     0.000016
      f0      :    -0.000015  f :    -0.000023
      f+1     :    -0.000007
      f-1     :    -0.000001
      f+2     :    -0.000004
      f-2     :     0.000005
      f+3     :    -0.000000
      f-3     :     0.000000
 11 H s       :    -0.000188  s :    -0.000188
      pz      :    -0.000022  p :    -0.000173
      px      :    -0.000144
      py      :    -0.000008
 12 H s       :     0.011452  s :     0.011452
      pz      :    -0.000149  p :    -0.000456
      px      :    -0.000208
      py      :    -0.000099
 13 H s       :     0.011753  s :     0.011753
      pz      :    -0.000127  p :    -0.000460
      px      :    -0.000298
      py      :    -0.000035
 14 H s       :    -0.002612  s :    -0.002612
      pz      :     0.001329  p :     0.002387
      px      :     0.000387
      py      :     0.000671
 15 H s       :     0.000938  s :     0.000938
      pz      :    -0.000564  p :    -0.001082
      px      :    -0.000197
      py      :    -0.000320
 16 H s       :     0.001441  s :     0.001441
      pz      :    -0.000831  p :    -0.001602
      px      :    -0.000274
      py      :    -0.000497
 17 H s       :    -0.003412  s :    -0.003412
      pz      :     0.001457  p :     0.002818
      px      :     0.000553
      py      :     0.000808


                      *****************************
                      * MAYER POPULATION ANALYSIS *
                      *****************************

  NA   - Mulliken gross atomic population
  ZA   - Total nuclear charge
  QA   - Mulliken gross atomic charge
  VA   - Mayer's total valence
  BVA  - Mayer's bonded valence
  FA   - Mayer's free valence

  ATOM       NA         ZA         QA         VA         BVA        FA
  0 C      6.4239     6.0000    -0.4239     3.8661     3.8655     0.0006
  1 S     15.7683    16.0000     0.2317     2.9390     2.7015     0.2375
  2 C      5.8238     6.0000     0.1762     3.8108     3.7983     0.0125
  3 C      6.1668     6.0000    -0.1668     3.9028     3.8875     0.0154
  4 C      6.2333     6.0000    -0.2333     4.0261     4.0219     0.0042
  5 C      5.8173     6.0000     0.1827     3.4420     3.3756     0.0664
  6 C      6.2416     6.0000    -0.2416     4.0233     4.0162     0.0071
  7 C      6.1158     6.0000    -0.1158     3.8671     3.8436     0.0235
  8 C      5.6307     6.0000     0.3693     4.4193     4.4191     0.0002
  9 O      8.6091     8.0000    -0.6091     1.8295     1.8287     0.0008
 10 O      8.6099     8.0000    -0.6099     1.8283     1.8276     0.0007
 11 H      0.7830     1.0000     0.2170     0.9510     0.9510     0.0000
 12 H      0.7860     1.0000     0.2140     0.9505     0.9502     0.0003
 13 H      0.7861     1.0000     0.2139     0.9502     0.9499     0.0003
 14 H      0.7858     1.0000     0.2142     0.9488     0.9488     0.0000
 15 H      0.8111     1.0000     0.1889     0.9758     0.9758     0.0000
 16 H      0.8111     1.0000     0.1889     0.9744     0.9744     0.0000
 17 H      0.7966     1.0000     0.2034     0.9531     0.9531     0.0000

  Mayer bond orders larger than 0.100000
B(  0-C ,  1-S ) :   1.0362 B(  0-C , 11-H ) :   0.9279 B(  0-C , 12-H ) :   0.9308 
B(  0-C , 13-H ) :   0.9303 B(  1-S ,  2-C ) :   1.4090 B(  2-C ,  3-C ) :   1.1740 
B(  2-C ,  7-C ) :   1.1532 B(  3-C ,  4-C ) :   1.5756 B(  3-C , 14-H ) :   0.9433 
B(  4-C ,  5-C ) :   1.2647 B(  4-C , 15-H ) :   0.9526 B(  5-C ,  6-C ) :   1.2802 
B(  5-C ,  8-C ) :   0.8532 B(  6-C ,  7-C ) :   1.5606 B(  6-C , 16-H ) :   0.9611 
B(  7-C , 17-H ) :   0.9574 B(  8-C ,  9-O ) :   1.7644 B(  8-C , 10-O ) :   1.7662 


-------
TIMINGS
-------

Total SCF time: 0 days 0 hours 1 min 1 sec 

Total time                  ....      61.902 sec
Sum of individual times     ....      58.821 sec  ( 95.0%)

Fock matrix formation       ....      56.329 sec  ( 91.0%)
  Split-RI-J                ....       4.455 sec  (  7.9% of F)
  Chain of spheres X        ....      42.249 sec  ( 75.0% of F)
  XC integration            ....       4.557 sec  (  8.1% of F)
    Basis function eval.    ....       0.781 sec  ( 17.1% of XC)
    Density eval.           ....       1.675 sec  ( 36.8% of XC)
    XC-Functional eval.     ....       0.231 sec  (  5.1% of XC)
    XC-Potential eval.      ....       1.156 sec  ( 25.4% of XC)
Diagonalization             ....       0.756 sec  (  1.2%)
Density matrix formation    ....       0.033 sec  (  0.1%)
Population analysis         ....       0.171 sec  (  0.3%)
Initial guess               ....       0.098 sec  (  0.2%)
Orbital Transformation      ....       0.000 sec  (  0.0%)
Orbital Orthonormalization  ....       0.077 sec  (  0.1%)
DIIS solution               ....       0.305 sec  (  0.5%)
Grid generation             ....       1.128 sec  (  1.8%)

Maximum memory used throughout the entire SCF-calculation: 95.2 MB


-------------------------------------------------------------------------------
                          DFT DISPERSION CORRECTION                            
                                                                               
                              DFTD3 V3.1  Rev 1                                
                              USING zero damping                               
-------------------------------------------------------------------------------
The omegaB97X-D3 functional is recognized. Fit by Chai et al.
Active option DFTDOPT                   ...         3   

molecular C6(AA) [au] = 4869.534719 


            DFT-D V3
 parameters
 s6 scaling factor         :     1.0000 
 rs6 scaling factor        :     1.2810 
 s8 scaling factor         :     1.0000 
 rs8 scaling factor        :     1.0940 
 Damping factor alpha6     :    14.0000 
 Damping factor alpha8     :    16.0000 
 ad hoc parameters k1-k3   :    16.0000     1.3333    -4.0000 

 Edisp/kcal,au: -3.576688662405  -0.005699815586 
 E6   /kcal   :  -1.460140103 
 E8   /kcal   :  -2.116548559 
 % E8         :  59.176203434 

-------------------------   ----------------
Dispersion correction           -0.005699816
-------------------------   ----------------


-------------------------   --------------------
FINAL SINGLE POINT ENERGY      -857.732048757338
-------------------------   --------------------

                                *** OPTIMIZATION RUN DONE ***

                            ***************************************
                            *     ORCA property calculations      *
                            ***************************************

                                    ---------------------
                                    Active property flags
                                    ---------------------
   (+) Dipole Moment


------------------------------------------------------------------------------
                       ORCA ELECTRIC PROPERTIES CALCULATION
------------------------------------------------------------------------------

Dipole Moment Calculation                       ... on
Quadrupole Moment Calculation                   ... off
Polarizability Calculation                      ... off
GBWName                                         ... /burg/berkelbach/users/eav2136/projects/peroxide_dissociation/05_range_separated_functional/wb97x-d-radical-nmf/wb97x-d-radical-nmf_opt.gbw
Electron density                                ... /burg/berkelbach/users/eav2136/projects/peroxide_dissociation/05_range_separated_functional/wb97x-d-radical-nmf/wb97x-d-radical-nmf_opt.scfp
The origin for moment calculation is the CENTER OF MASS  = ( 1.616627,  6.620330  2.152261)

-------------
DIPOLE MOMENT
-------------
                                X             Y             Z
Electronic contribution:      3.08973      -0.54309      -1.51034
Nuclear contribution   :     -3.02051       8.30785       6.90100
                        -----------------------------------------
Total Dipole Moment    :      0.06922       7.76475       5.39066
                        -----------------------------------------
Magnitude (a.u.)       :      9.45280
Magnitude (Debye)      :     24.02711



--------------------
Rotational spectrum 
--------------------
 
Rotational constants in cm-1:     0.103434     0.015381     0.013787 
Rotational constants in MHz :  3100.860530   461.105293   413.317737 

 Dipole components along the rotational axes: 
x,y,z [a.u.] :    -9.448236    -0.283515    -0.076609 
x,y,z [Debye]:   -24.015508    -0.720639    -0.194724 

 

Timings for individual modules:

Sum of individual times         ...     1190.510 sec (=  19.842 min)
GTO integral calculation        ...       12.139 sec (=   0.202 min)   1.0 %
SCF iterations                  ...      996.352 sec (=  16.606 min)  83.7 %
SCF Gradient evaluation         ...      181.514 sec (=   3.025 min)  15.2 %
Geometry relaxation             ...        0.504 sec (=   0.008 min)   0.0 %
                             ****ORCA TERMINATED NORMALLY****
TOTAL RUN TIME: 0 days 0 hours 20 minutes 4 seconds 158 msec
