Job execution start: Fri Apr 22 10:30:28 EDT 2022
Shared library path: /cm/shared/apps/cuda11.0/toolkit/11.0.3/compat:/burg/berkelbach/users/eav2136/builds/orca/5.0.3/orca:/cm/shared/apps/ucx/1.8.1/lib64:/cm/local/apps/cuda/libs/current/lib64:/cm/shared/apps/cuda11.0/toolkit/11.0.3/targets/x86_64-linux/lib:/cm/shared/apps/cuda11.0/visual-tools/11.0.3/libnvvp:/burg/opt/openmpi-4.1.1_ucx_cuda_11.0.3_support/lib:/cm/shared/apps/slurm/current/lib64/slurm:/cm/shared/apps/slurm/current/lib64
Slurm Job ID is: 1844338
Slurm Job name is: dmso_radical_opt
g066

                                 *****************
                                 * O   R   C   A *
                                 *****************

                                            #,                                       
                                            ###                                      
                                            ####                                     
                                            #####                                    
                                            ######                                   
                                           ########,                                 
                                     ,,################,,,,,                         
                               ,,#################################,,                 
                          ,,##########################################,,             
                       ,#########################################, ''#####,          
                    ,#############################################,,   '####,        
                  ,##################################################,,,,####,       
                ,###########''''           ''''###############################       
              ,#####''   ,,,,##########,,,,          '''####'''          '####       
            ,##' ,,,,###########################,,,                        '##       
           ' ,,###''''                  '''############,,,                           
         ,,##''                                '''############,,,,        ,,,,,,###''
      ,#''                                            '''#######################'''  
     '                                                          ''''####''''         
             ,#######,   #######,   ,#######,      ##                                
            ,#'     '#,  ##    ##  ,#'     '#,    #''#        ######   ,####,        
            ##       ##  ##   ,#'  ##            #'  '#       #        #'  '#        
            ##       ##  #######   ##           ,######,      #####,   #    #        
            '#,     ,#'  ##    ##  '#,     ,#' ,#      #,         ##   #,  ,#        
             '#######'   ##     ##  '#######'  #'      '#     #####' # '####'        



                  #######################################################
                  #                        -***-                        #
                  #          Department of theory and spectroscopy      #
                  #    Directorship and core code : Frank Neese         #
                  #        Max Planck Institute fuer Kohlenforschung    #
                  #                Kaiser Wilhelm Platz 1               #
                  #                 D-45470 Muelheim/Ruhr               #
                  #                      Germany                        #
                  #                                                     #
                  #                  All rights reserved                #
                  #                        -***-                        #
                  #######################################################


                         Program Version 5.0.3 -  RELEASE  -


 With contributions from (in alphabetic order):
   Daniel Aravena         : Magnetic Suceptibility
   Michael Atanasov       : Ab Initio Ligand Field Theory (pilot matlab implementation)
   Alexander A. Auer      : GIAO ZORA, VPT2 properties, NMR spectrum
   Ute Becker             : Parallelization
   Giovanni Bistoni       : ED, misc. LED, open-shell LED, HFLD
   Martin Brehm           : Molecular dynamics
   Dmytro Bykov           : SCF Hessian
   Vijay G. Chilkuri      : MRCI spin determinant printing, contributions to CSF-ICE
   Dipayan Datta          : RHF DLPNO-CCSD density
   Achintya Kumar Dutta   : EOM-CC, STEOM-CC
   Dmitry Ganyushin       : Spin-Orbit,Spin-Spin,Magnetic field MRCI
   Miquel Garcia          : C-PCM and meta-GGA Hessian, CC/C-PCM, Gaussian charge scheme
   Yang Guo               : DLPNO-NEVPT2, F12-NEVPT2, CIM, IAO-localization
   Andreas Hansen         : Spin unrestricted coupled pair/coupled cluster methods
   Benjamin Helmich-Paris : MC-RPA, TRAH-SCF, COSX integrals
   Lee Huntington         : MR-EOM, pCC
   Robert Izsak           : Overlap fitted RIJCOSX, COSX-SCS-MP3, EOM
   Marcus Kettner         : VPT2
   Christian Kollmar      : KDIIS, OOCD, Brueckner-CCSD(T), CCSD density, CASPT2, CASPT2-K
   Simone Kossmann        : Meta GGA functionals, TD-DFT gradient, OOMP2, MP2 Hessian
   Martin Krupicka        : Initial AUTO-CI
   Lucas Lang             : DCDCAS
   Marvin Lechner         : AUTO-CI (C++ implementation), FIC-MRCC
   Dagmar Lenk            : GEPOL surface, SMD
   Dimitrios Liakos       : Extrapolation schemes; Compound Job, initial MDCI parallelization
   Dimitrios Manganas     : Further ROCIS development; embedding schemes
   Dimitrios Pantazis     : SARC Basis sets
   Anastasios Papadopoulos: AUTO-CI, single reference methods and gradients
   Taras Petrenko         : DFT Hessian,TD-DFT gradient, ASA, ECA, R-Raman, ABS, FL, XAS/XES, NRVS
   Peter Pinski           : DLPNO-MP2, DLPNO-MP2 Gradient
   Christoph Reimann      : Effective Core Potentials
   Marius Retegan         : Local ZFS, SOC
   Christoph Riplinger    : Optimizer, TS searches, QM/MM, DLPNO-CCSD(T), (RO)-DLPNO pert. Triples
   Tobias Risthaus        : Range-separated hybrids, TD-DFT gradient, RPA, STAB
   Michael Roemelt        : Original ROCIS implementation
   Masaaki Saitow         : Open-shell DLPNO-CCSD energy and density
   Barbara Sandhoefer     : DKH picture change effects
   Avijit Sen             : IP-ROCIS
   Kantharuban Sivalingam : CASSCF convergence, NEVPT2, FIC-MRCI
   Bernardo de Souza      : ESD, SOC TD-DFT
   Georgi Stoychev        : AutoAux, RI-MP2 NMR, DLPNO-MP2 response
   Willem Van den Heuvel  : Paramagnetic NMR
   Boris Wezisla          : Elementary symmetry handling
   Frank Wennmohs         : Technical directorship


 We gratefully acknowledge several colleagues who have allowed us to
 interface, adapt or use parts of their codes:
   Stefan Grimme, W. Hujo, H. Kruse, P. Pracht,  : VdW corrections, initial TS optimization,
                  C. Bannwarth, S. Ehlert          DFT functionals, gCP, sTDA/sTD-DF
   Ed Valeev, F. Pavosevic, A. Kumar             : LibInt (2-el integral package), F12 methods
   Garnet Chan, S. Sharma, J. Yang, R. Olivares  : DMRG
   Ulf Ekstrom                                   : XCFun DFT Library
   Mihaly Kallay                                 : mrcc  (arbitrary order and MRCC methods)
   Jiri Pittner, Ondrej Demel                    : Mk-CCSD
   Frank Weinhold                                : gennbo (NPA and NBO analysis)
   Christopher J. Cramer and Donald G. Truhlar   : smd solvation model
   Lars Goerigk                                  : TD-DFT with DH, B97 family of functionals
   V. Asgeirsson, H. Jonsson                     : NEB implementation
   FAccTs GmbH                                   : IRC, NEB, NEB-TS, DLPNO-Multilevel, CI-OPT
                                                   MM, QMMM, 2- and 3-layer-ONIOM, Crystal-QMMM,
                                                   LR-CPCM, SF, NACMEs, symmetry and pop. for TD-DFT,
                                                   nearIR, NL-DFT gradient (VV10), updates on ESD,
                                                   ML-optimized integration grids
   S Lehtola, MJT Oliveira, MAL Marques          : LibXC Library
   Liviu Ungur et al                             : ANISO software


 Your calculation uses the libint2 library for the computation of 2-el integrals
 For citations please refer to: http://libint.valeyev.net

 Your ORCA version has been built with support for libXC version: 5.1.0
 For citations please refer to: https://tddft.org/programs/libxc/

 This ORCA versions uses:
   CBLAS   interface :  Fast vector & matrix operations
   LAPACKE interface :  Fast linear algebra routines
   SCALAPACK package :  Parallel linear algebra routines
   Shared memory     :  Shared parallel matrices
   BLAS/LAPACK       :  OpenBLAS 0.3.15  USE64BITINT DYNAMIC_ARCH NO_AFFINITY SkylakeX SINGLE_THREADED
        Core in use  :  SkylakeX
   Copyright (c) 2011-2014, The OpenBLAS Project


Your calculation utilizes the atom-pairwise dispersion correction
with the Becke-Johnson damping scheme (D3BJ)
Cite in your paper:
S.Grimme, S.Ehrlich, L.Goerigk, J Comput Chem, (2011), 32, 1456–1465 
S.Grimme, J.Antony, S.Ehrlich and H.Krieg, J.Chem.Phys., 132, (2010), 154104 
   

Your calculation utilizes the SMD solvation module
Please cite in your paper:
A.V. Marenich, C.J. Cramer, D.G. Truhlar J. Phys. Chem. B, 113, (2009), 6378 

================================================================================

----- Orbital basis set information -----
Your calculation utilizes the basis: def2-TZVP
   F. Weigend and R. Ahlrichs, Phys. Chem. Chem. Phys. 7, 3297 (2005).

----- AuxJ basis set information -----
Your calculation utilizes the auxiliary basis: def2/J
   F. Weigend, Phys. Chem. Chem. Phys. 8, 1057 (2006).

================================================================================
                                        WARNINGS
                       Please study these warnings very carefully!
================================================================================


WARNING: Geometry Optimization
  ===> : Switching off AutoStart
         For restart on a previous wavefunction, please use MOREAD

INFO   : the flag for use of the SHARK integral package has been found!

================================================================================
                                       INPUT FILE
================================================================================
NAME = /burg/berkelbach/users/eav2136/projects/peroxide_dissociation/04_solvated_radical/dmso/dmso_radical_opt.inp
|  1> ! UKS PBE0 def2-TZVP def2/J RIJCOSX D3BJ TIGHTSCF Opt CPCM PAL8
|  2> %maxcore 5000
|  3> %cpcm
|  4> smd true
|  5> SMDsolvent "DMSO"
|  6> end
|  7> * xyz 0 2
|  8>  C -0.07425707479814 6.45007760366319 3.54636897867849
|  9>  S 1.48979584793712 6.08048225687873 2.75598260255209
| 10>  C 1.14936654141856 4.63662227087222 1.83369205968326
| 11>  C -0.09136557109480 4.00305286554088 1.79338352444578
| 12>  C -0.25826928718407 2.84269542505768 1.05936282240646
| 13>  C 0.80050967676942 2.30271389692801 0.33923873907232
| 14>  C 2.02875697338567 2.96040825022008 0.34201900047512
| 15>  C 2.20764771123846 4.10330343094754 1.09121055149825
| 16>  C 0.66254428710301 1.09941809961861 -0.50690159852297
| 17>  O 0.00000000000000 0.00000000000000 0.00000000000000
| 18>  O 1.06713866538631 0.98717129960580 -1.62357736506780
| 19>  H 0.10416325535368 7.34607684664392 4.14087383255362
| 20>  H -0.38882275224257 5.64387294862163 4.21002028523424
| 21>  H -0.85323854703301 6.66443357654391 2.81385647784552
| 22>  H -0.93700004363157 4.40513362395569 2.33421606140266
| 23>  H -1.23507439683237 2.37497021944690 1.02749021968162
| 24>  H 2.84544686618639 2.55882587909200 -0.24576673820719
| 25>  H 3.17295340310622 4.59670965109571 1.10248346369500
| 26> *
| 27> 
| 28>                          ****END OF INPUT****
================================================================================

                       *****************************
                       * Geometry Optimization Run *
                       *****************************

Geometry optimization settings:
Update method            Update   .... BFGS
Choice of coordinates    CoordSys .... Z-matrix Internals
Initial Hessian          InHess   .... Almoef's Model

Convergence Tolerances:
Energy Change            TolE     ....  5.0000e-06 Eh
Max. Gradient            TolMAXG  ....  3.0000e-04 Eh/bohr
RMS Gradient             TolRMSG  ....  1.0000e-04 Eh/bohr
Max. Displacement        TolMAXD  ....  4.0000e-03 bohr
RMS Displacement         TolRMSD  ....  2.0000e-03 bohr
Strict Convergence                ....  False
------------------------------------------------------------------------------
                        ORCA OPTIMIZATION COORDINATE SETUP
------------------------------------------------------------------------------

The optimization will be done in new redundant internal coordinates
Making redundant internal coordinates   ...  (new redundants) done
Evaluating the initial hessian          ...  (Almloef) done
Evaluating the coordinates              ...  done
Calculating the B-matrix                .... done
Calculating the G-matrix                .... done
Diagonalizing the G-matrix              .... done
Small eigenvalue found = 1.379e-02
The first mode is                       ....   31
The number of degrees of freedom        ....   48

    -----------------------------------------------------------------
                    Redundant Internal Coordinates


    -----------------------------------------------------------------
         Definition                    Initial Value    Approx d2E/dq
    -----------------------------------------------------------------
      1. B(S   1,C   0)                  1.7910         0.386175   
      2. B(C   2,S   1)                  1.7468         0.454240   
      3. B(C   3,C   2)                  1.3937         0.616320   
      4. B(C   4,C   3)                  1.3831         0.640745   
      5. B(C   5,C   4)                  1.3897         0.625563   
      6. B(C   6,C   5)                  1.3933         0.617369   
      7. B(C   7,C   2)                  1.3985         0.605696   
      8. B(C   7,C   6)                  1.3782         0.652421   
      9. B(C   8,C   5)                  1.4775         0.453096   
     10. B(O   9,C   8)                  1.3801         0.580356   
     11. B(O  10,C   8)                  1.1930         1.153901   
     12. B(H  11,C   0)                  1.0900         0.360109   
     13. B(H  12,C   0)                  1.0906         0.359342   
     14. B(H  13,C   0)                  1.0906         0.359351   
     15. B(H  14,C   3)                  1.0813         0.371759   
     16. B(H  15,C   4)                  1.0835         0.368828   
     17. B(H  16,C   6)                  1.0834         0.368946   
     18. B(H  17,C   7)                  1.0842         0.367916   
     19. A(S   1,C   0,H  13)          111.5879         0.342618   
     20. A(S   1,C   0,H  12)          111.5859         0.342616   
     21. A(H  12,C   0,H  13)          110.3658         0.290648   
     22. A(H  11,C   0,H  12)          108.8436         0.290744   
     23. A(S   1,C   0,H  11)          105.5091         0.342738   
     24. A(H  11,C   0,H  13)          108.7656         0.290746   
     25. A(C   0,S   1,C   2)          103.4970         0.419917   
     26. A(S   1,C   2,C   7)          116.6202         0.431369   
     27. A(C   3,C   2,C   7)          119.0102         0.431786   
     28. A(S   1,C   2,C   3)          124.3692         0.432719   
     29. A(C   2,C   3,C   4)          120.2744         0.436178   
     30. A(C   4,C   3,H  14)          118.8821         0.356807   
     31. A(C   2,C   3,H  14)          120.8433         0.354461   
     32. A(C   5,C   4,H  15)          120.2581         0.354880   
     33. A(C   3,C   4,H  15)          119.1145         0.356327   
     34. A(C   3,C   4,C   5)          120.6005         0.437350   
     35. A(C   6,C   5,C   8)          117.8994         0.410112   
     36. A(C   4,C   5,C   8)          122.8259         0.411072   
     37. A(C   4,C   5,C   6)          119.1567         0.434432   
     38. A(C   7,C   6,H  16)          120.2952         0.357442   
     39. A(C   5,C   6,H  16)          119.2412         0.354107   
     40. A(C   5,C   6,C   7)          120.4618         0.437734   
     41. A(C   6,C   7,H  17)          119.9087         0.357272   
     42. A(C   2,C   7,H  17)          119.6508         0.352797   
     43. A(C   2,C   7,C   6)          120.4398         0.436231   
     44. A(O   9,C   8,O  10)          115.5727         0.473849   
     45. A(C   5,C   8,O  10)          125.5219         0.455899   
     46. A(C   5,C   8,O   9)          118.8999         0.403044   
     47. D(C   2,S   1,C   0,H  12)     61.4721         0.003898   
     48. D(C   2,S   1,C   0,H  11)    179.5234         0.003898   
     49. D(C   2,S   1,C   0,H  13)    -62.5176         0.003898   
     50. D(C   7,C   2,S   1,C   0)    179.8441         0.004531   
     51. D(C   3,C   2,S   1,C   0)      0.0768         0.004531   
     52. D(C   4,C   3,C   2,S   1)   -178.3900         0.026266   
     53. D(H  14,C   3,C   2,C   7)   -178.3097         0.026266   
     54. D(H  14,C   3,C   2,S   1)      1.4524         0.026266   
     55. D(C   4,C   3,C   2,C   7)      1.8479         0.026266   
     56. D(H  15,C   4,C   3,H  14)      1.1825         0.028529   
     57. D(H  15,C   4,C   3,C   2)   -178.9720         0.028529   
     58. D(C   5,C   4,C   3,H  14)    179.3028         0.028529   
     59. D(C   5,C   4,C   3,C   2)     -0.8517         0.028529   
     60. D(C   6,C   5,C   4,H  15)    176.7603         0.027109   
     61. D(C   6,C   5,C   4,C   3)     -1.3385         0.027109   
     62. D(C   8,C   5,C   4,H  15)      0.7946         0.027109   
     63. D(C   8,C   5,C   4,C   3)   -177.3042         0.027109   
     64. D(H  16,C   6,C   5,C   8)     -1.7852         0.026361   
     65. D(H  16,C   6,C   5,C   4)   -177.9495         0.026361   
     66. D(C   7,C   6,C   5,C   8)    178.6982         0.026361   
     67. D(C   7,C   6,C   5,C   4)      2.5338         0.026361   
     68. D(H  17,C   7,C   6,H  16)     -0.7379         0.029652   
     69. D(H  17,C   7,C   6,C   5)    178.7736         0.029652   
     70. D(C   2,C   7,C   6,H  16)    178.9472         0.029652   
     71. D(C   2,C   7,C   6,C   5)     -1.5413         0.029652   
     72. D(H  17,C   7,C   2,C   3)    179.0287         0.025317   
     73. D(H  17,C   7,C   2,S   1)     -0.7516         0.025317   
     74. D(C   6,C   7,C   2,C   3)     -0.6572         0.025317   
     75. D(C   6,C   7,C   2,S   1)    179.5625         0.025317   
     76. D(O   9,C   8,C   5,C   6)    137.7156         0.013991   
     77. D(O   9,C   8,C   5,C   4)    -46.2708         0.013991   
     78. D(O  10,C   8,C   5,C   6)    -43.1749         0.013991   
     79. D(O  10,C   8,C   5,C   4)    132.8388         0.013991   
    -----------------------------------------------------------------

Number of atoms                         .... 18
Number of degrees of freedom            .... 79

         *************************************************************
         *                GEOMETRY OPTIMIZATION CYCLE   1            *
         *************************************************************
---------------------------------
CARTESIAN COORDINATES (ANGSTROEM)
---------------------------------
  C     -0.074257    6.450078    3.546369
  S      1.489796    6.080482    2.755983
  C      1.149367    4.636622    1.833692
  C     -0.091366    4.003053    1.793384
  C     -0.258269    2.842695    1.059363
  C      0.800510    2.302714    0.339239
  C      2.028757    2.960408    0.342019
  C      2.207648    4.103303    1.091211
  C      0.662544    1.099418   -0.506902
  O      0.000000    0.000000    0.000000
  O      1.067139    0.987171   -1.623577
  H      0.104163    7.346077    4.140874
  H     -0.388823    5.643873    4.210020
  H     -0.853239    6.664434    2.813856
  H     -0.937000    4.405134    2.334216
  H     -1.235074    2.374970    1.027490
  H      2.845447    2.558826   -0.245767
  H      3.172953    4.596710    1.102483

----------------------------
CARTESIAN COORDINATES (A.U.)
----------------------------
  NO LB      ZA    FRAG     MASS         X           Y           Z
   0 C     6.0000    0    12.011   -0.140326   12.188880    6.701666
   1 S    16.0000    0    32.060    2.815306   11.490446    5.208052
   2 C     6.0000    0    12.011    2.171988    8.761946    3.465176
   3 C     6.0000    0    12.011   -0.172656    7.564674    3.389004
   4 C     6.0000    0    12.011   -0.488058    5.371916    2.001906
   5 C     6.0000    0    12.011    1.512744    4.351499    0.641068
   6 C     6.0000    0    12.011    3.833795    5.594361    0.646322
   7 C     6.0000    0    12.011    4.171850    7.754120    2.062089
   8 C     6.0000    0    12.011    1.252027    2.077599   -0.957905
   9 O     8.0000    0    15.999    0.000000    0.000000    0.000000
  10 O     8.0000    0    15.999    2.016600    1.865483   -3.068117
  11 H     1.0000    0     1.008    0.196840   13.882073    7.825117
  12 H     1.0000    0     1.008   -0.734769   10.665374    7.955785
  13 H     1.0000    0     1.008   -1.612387   12.593954    5.317418
  14 H     1.0000    0     1.008   -1.770673    8.324496    4.411029
  15 H     1.0000    0     1.008   -2.333952    4.488043    1.941675
  16 H     1.0000    0     1.008    5.377115    4.835480   -0.464432
  17 H     1.0000    0     1.008    5.996013    8.686522    2.083392

--------------------------------
INTERNAL COORDINATES (ANGSTROEM)
--------------------------------
 C      0   0   0     0.000000000000     0.00000000     0.00000000
 S      1   0   0     1.790969818017     0.00000000     0.00000000
 C      2   1   0     1.746780929995   103.49703222     0.00000000
 C      3   2   1     1.393718459520   124.36918170     0.07682297
 C      4   3   2     1.383138688329   120.27439762   181.60997218
 C      5   4   3     1.389666017657   120.60050203   359.14829865
 C      6   5   4     1.393255545064   119.15672375   358.66151732
 C      7   6   5     1.378223229504   120.46180539     2.53383799
 C      6   5   4     1.477466986255   122.82593719   182.69580816
 O      9   6   5     1.380084896203   118.89987975   313.72924568
 O      9   6   5     1.193004913083   125.52191253   132.83876530
 H      1   2   3     1.089992880213   105.50910599   179.52342869
 H      1   2   3     1.090573504139   111.58592171    61.47211732
 H      1   2   3     1.090566449636   111.58785041   297.48242808
 H      4   3   2     1.081326236832   120.84329981     1.45240478
 H      5   4   3     1.083480942612   119.11451180   181.02803207
 H      7   6   5     1.083394137146   119.24119758   182.05045369
 H      8   7   6     1.084154903776   119.90872766   178.77361985

---------------------------
INTERNAL COORDINATES (A.U.)
---------------------------
 C      0   0   0     0.000000000000     0.00000000     0.00000000
 S      1   0   0     3.384442470171     0.00000000     0.00000000
 C      2   1   0     3.300937573646   103.49703222     0.00000000
 C      3   2   1     2.633746196283   124.36918170     0.07682297
 C      4   3   2     2.613753326172   120.27439762   181.60997218
 C      5   4   3     2.626088190988   120.60050203   359.14829865
 C      6   5   4     2.632871414738   119.15672375   358.66151732
 C      7   6   5     2.604464455171   120.46180539     2.53383799
 C      6   5   4     2.792007975932   122.82593719   182.69580816
 O      9   6   5     2.607982495384   118.89987975   313.72924568
 O      9   6   5     2.254452562149   125.52191253   132.83876530
 H      1   2   3     2.059788031526   105.50910599   179.52342869
 H      1   2   3     2.060885251733   111.58592171    61.47211732
 H      1   2   3     2.060871920655   111.58785041   297.48242808
 H      4   3   2     2.043410449036   120.84329981     1.45240478
 H      5   4   3     2.047482252859   119.11451180   181.02803207
 H      7   6   5     2.047318214302   119.24119758   182.05045369
 H      8   7   6     2.048755854885   119.90872766   178.77361985

---------------------
BASIS SET INFORMATION
---------------------
There are 4 groups of distinct atoms

 Group   1 Type C   : 11s6p2d1f contracted to 5s3p2d1f pattern {62111/411/11/1}
 Group   2 Type S   : 14s9p3d1f contracted to 5s5p2d1f pattern {73211/51111/21/1}
 Group   3 Type O   : 11s6p2d1f contracted to 5s3p2d1f pattern {62111/411/11/1}
 Group   4 Type H   : 5s1p contracted to 3s1p pattern {311/1}

Atom   0C    basis set group =>   1
Atom   1S    basis set group =>   2
Atom   2C    basis set group =>   1
Atom   3C    basis set group =>   1
Atom   4C    basis set group =>   1
Atom   5C    basis set group =>   1
Atom   6C    basis set group =>   1
Atom   7C    basis set group =>   1
Atom   8C    basis set group =>   1
Atom   9O    basis set group =>   3
Atom  10O    basis set group =>   3
Atom  11H    basis set group =>   4
Atom  12H    basis set group =>   4
Atom  13H    basis set group =>   4
Atom  14H    basis set group =>   4
Atom  15H    basis set group =>   4
Atom  16H    basis set group =>   4
Atom  17H    basis set group =>   4
---------------------------------
AUXILIARY/J BASIS SET INFORMATION
---------------------------------
There are 4 groups of distinct atoms

 Group   1 Type C   : 12s5p4d2f1g contracted to 6s4p3d1f1g pattern {711111/2111/211/2/1}
 Group   2 Type S   : 14s5p5d2f1g contracted to 8s4p3d1f1g pattern {71111111/2111/311/2/1}
 Group   3 Type O   : 12s5p4d2f1g contracted to 6s4p3d1f1g pattern {711111/2111/211/2/1}
 Group   4 Type H   : 5s2p1d contracted to 3s1p1d pattern {311/2/1}

Atom   0C    basis set group =>   1
Atom   1S    basis set group =>   2
Atom   2C    basis set group =>   1
Atom   3C    basis set group =>   1
Atom   4C    basis set group =>   1
Atom   5C    basis set group =>   1
Atom   6C    basis set group =>   1
Atom   7C    basis set group =>   1
Atom   8C    basis set group =>   1
Atom   9O    basis set group =>   3
Atom  10O    basis set group =>   3
Atom  11H    basis set group =>   4
Atom  12H    basis set group =>   4
Atom  13H    basis set group =>   4
Atom  14H    basis set group =>   4
Atom  15H    basis set group =>   4
Atom  16H    basis set group =>   4
Atom  17H    basis set group =>   4


           ************************************************************
           *        Program running with 8 parallel MPI-processes     *
           *              working on a common directory               *
           ************************************************************
------------------------------------------------------------------------------
                           ORCA GTO INTEGRAL CALCULATION
                           -- RI-GTO INTEGRALS CHOSEN --
------------------------------------------------------------------------------
------------------------------------------------------------------------------
                   ___                                                        
                  /   \      - P O W E R E D   B Y -                         
                 /     \                                                     
                 |  |  |   _    _      __       _____    __    __             
                 |  |  |  | |  | |    /  \     |  _  \  |  |  /  |          
                  \  \/   | |  | |   /    \    | | | |  |  | /  /          
                 / \  \   | |__| |  /  /\  \   | |_| |  |  |/  /          
                |  |  |   |  __  | /  /__\  \  |    /   |      \           
                |  |  |   | |  | | |   __   |  |    \   |  |\   \          
                \     /   | |  | | |  |  |  |  | |\  \  |  | \   \       
                 \___/    |_|  |_| |__|  |__|  |_| \__\ |__|  \__/        
                                                                              
                      - O R C A' S   B I G   F R I E N D -                    
                                      &                                       
                       - I N T E G R A L  F E E D E R -                       
                                                                              
 v1 FN, 2020, v2 2021                                                         
------------------------------------------------------------------------------


Reading SHARK input file /burg/berkelbach/users/eav2136/projects/peroxide_dissociation/04_solvated_radical/dmso/dmso_radical_opt.SHARKINP.tmp ... ok
----------------------
SHARK INTEGRAL PACKAGE
----------------------

Number of atoms                             ...     18
Number of basis functions                   ...    389
Number of shells                            ...    151
Maximum angular momentum                    ...      3
Integral batch strategy                     ... SHARK/LIBINT Hybrid
RI-J (if used) integral strategy            ... SPLIT-RIJ (Revised 2003 algorithm where possible)
Printlevel                                  ...      1
Contraction scheme used                     ... SEGMENTED contraction
Coulomb Range Separation                    ... NOT USED
Exchange Range Separation                   ... NOT USED
Finite Nucleus Model                        ... NOT USED
Auxiliary Coulomb fitting basis             ... AVAILABLE
   # of basis functions in Aux-J            ...    618
   # of shells in Aux-J                     ...    202
   Maximum angular momentum in Aux-J        ...      4
Auxiliary J/K fitting basis                 ... NOT available
Auxiliary Correlation fitting basis         ... NOT available
Auxiliary 'external' fitting basis          ... NOT available
Integral threshold                          ...     2.500000e-11
Primitive cut-off                           ...     2.500000e-12
Primitive pair pre-selection threshold      ...     2.500000e-12

Calculating pre-screening integrals         ... done (  0.1 sec) Dimension = 151
Organizing shell pair data                  ... done (  0.4 sec)
Shell pair information
Total number of shell pairs                 ...     11476
Shell pairs after pre-screening             ...      9496
Total number of primitive shell pairs       ...     36592
Primitive shell pairs kept                  ...     21620
          la=0 lb=0:   2303 shell pairs
          la=1 lb=0:   2678 shell pairs
          la=1 lb=1:    796 shell pairs
          la=2 lb=0:   1383 shell pairs
          la=2 lb=1:    801 shell pairs
          la=2 lb=2:    220 shell pairs
          la=3 lb=0:    667 shell pairs
          la=3 lb=1:    390 shell pairs
          la=3 lb=2:    204 shell pairs
          la=3 lb=3:     54 shell pairs

Calculating one electron integrals          ... done (  0.7 sec)
Calculating RI/J V-Matrix + Cholesky decomp.... done (  1.8 sec)
Calculating Nuclear repulsion               ... done (  0.0 sec) ENN=    631.489285915085 Eh

SHARK setup successfully completed in   7.5 seconds

Maximum memory used throughout the entire GTOINT-calculation: 24.2 MB


           ************************************************************
           *        Program running with 8 parallel MPI-processes     *
           *              working on a common directory               *
           ************************************************************
-------------------------------------------------------------------------------
                                 ORCA SCF
-------------------------------------------------------------------------------

------------
SCF SETTINGS
------------
Hamiltonian:
 Density Functional     Method          .... DFT(GTOs)
 Exchange Functional    Exchange        .... PBE
   PBE kappa parameter   XKappa         ....  0.804000
   PBE mue parameter    XMuePBE         ....  0.219520
 Correlation Functional Correlation     .... PBE
   PBE beta parameter  CBetaPBE         ....  0.066725
 LDA part of GGA corr.  LDAOpt          .... PW91-LDA
 Gradients option       PostSCFGGA      .... off
 Hybrid DFT is turned on
   Fraction HF Exchange ScalHFX         ....  0.250000
   Scaling of DF-GGA-X  ScalDFX         ....  0.750000
   Scaling of DF-GGA-C  ScalDFC         ....  1.000000
   Scaling of DF-LDA-C  ScalLDAC        ....  1.000000
   Perturbative correction              ....  0.000000
   Density functional embedding theory  .... OFF
   NL short-range parameter             ....  6.900000
 RI-approximation to the Coulomb term is turned on
   Number of AuxJ basis functions       .... 618
   RIJ-COSX (HFX calculated with COS-X)).... on


General Settings:
 Integral files         IntName         .... /burg/berkelbach/users/eav2136/projects/peroxide_dissociation/04_solvated_radical/dmso/dmso_radical_opt
 Hartree-Fock type      HFTyp           .... UHF
 Total Charge           Charge          ....    0
 Multiplicity           Mult            ....    2
 Number of Electrons    NEL             ....   87
 Basis Dimension        Dim             ....  389
 Nuclear Repulsion      ENuc            ....    631.4892859151 Eh

Convergence Acceleration:
 DIIS                   CNVDIIS         .... on
   Start iteration      DIISMaxIt       ....    12
   Startup error        DIISStart       ....  0.200000
   # of expansion vecs  DIISMaxEq       ....     5
   Bias factor          DIISBfac        ....   1.050
   Max. coefficient     DIISMaxC        ....  10.000
 Trust-Rad. Augm. Hess. CNVTRAH         .... auto
   Auto Start mean grad. ratio tolernc. ....  1.125000
   Auto Start start iteration           ....    20
   Auto Start num. interpolation iter.  ....    10
   Max. Number of Micro iterations      ....    16
   Max. Number of Macro iterations      .... Maxiter - #DIIS iter
   Number of Davidson start vectors     ....     2
   Converg. threshold I  (grad. norm)   ....   1.000e-05
   Converg. threshold II (energy diff.) ....   1.000e-08
   Grad. Scal. Fac. for Micro threshold ....   0.100
   Minimum threshold for Micro iter.    ....   0.010
   NR start threshold (gradient norm)   ....   0.001
   Initial trust radius                 ....   0.400
   Minimum AH scaling param. (alpha)    ....   1.000
   Maximum AH scaling param. (alpha)    .... 1000.000
   Orbital update algorithm             .... Taylor
   White noise on init. David. guess    .... on
   Maximum white noise                  ....   0.010
   Quad. conv. algorithm                .... NR
 SOSCF                  CNVSOSCF        .... off
 Level Shifting         CNVShift        .... on
   Level shift para.    LevelShift      ....    0.2500
   Turn off err/grad.   ShiftErr        ....    0.0010
 Zerner damping         CNVZerner       .... off
 Static damping         CNVDamp         .... on
   Fraction old density DampFac         ....    0.7000
   Max. Damping (<1)    DampMax         ....    0.9800
   Min. Damping (>=0)   DampMin         ....    0.0000
   Turn off err/grad.   DampErr         ....    0.1000
 Fernandez-Rico         CNVRico         .... off

SCF Procedure:
 Maximum # iterations   MaxIter         ....   125
 SCF integral mode      SCFMode         .... Direct
   Integral package                     .... SHARK and LIBINT hybrid scheme
 Reset frequency        DirectResetFreq ....    20
 Integral Threshold     Thresh          ....  2.500e-11 Eh
 Primitive CutOff       TCut            ....  2.500e-12 Eh

Convergence Tolerance:
 Convergence Check Mode ConvCheckMode   .... Total+1el-Energy
 Convergence forced     ConvForced      .... 0
 Energy Change          TolE            ....  1.000e-08 Eh
 1-El. energy change                    ....  1.000e-05 Eh
 DIIS Error             TolErr          ....  5.000e-07


Diagonalization of the overlap matrix:
Smallest eigenvalue                        ... 7.498e-06
Time for diagonalization                   ...    0.061 sec
Threshold for overlap eigenvalues          ... 1.000e-08
Number of eigenvalues below threshold      ... 0
Time for construction of square roots      ...    0.343 sec
Total time needed                          ...    0.767 sec

Time for model grid setup =    4.439 sec

------------------------------
INITIAL GUESS: MODEL POTENTIAL
------------------------------
Loading Hartree-Fock densities                     ... done
Calculating cut-offs                               ... done
Initializing the effective Hamiltonian             ... done
Setting up the integral package (SHARK)            ... done
Starting the Coulomb interaction                   ... done (   3.2 sec)
Reading the grid                                   ... done
Mapping shells                                     ... done
Starting the XC term evaluation                    ... done (   1.0 sec)
  promolecular density results
     # of electrons  =     87.002319788
     EX              =    -84.142216924
     EC              =     -2.991987125
     EX+EC           =    -87.134204050
Transforming the Hamiltonian                       ... done (   1.0 sec)
Diagonalizing the Hamiltonian                      ... done (   0.9 sec)
Back transforming the eigenvectors                 ... done (   0.1 sec)
Now organizing SCF variables                       ... done
                      ------------------
                      INITIAL GUESS DONE (  11.2 sec)
                      ------------------
-------------------
DFT GRID GENERATION
-------------------

General Integration Accuracy     IntAcc      ... 4.388
Radial Grid Type                 RadialGrid  ... OptM3 with GC (2021)
Angular Grid (max. ang.)         AngularGrid ... 4 (Lebedev-302)
Angular grid pruning method      GridPruning ... 4 (adaptive)
Weight generation scheme         WeightScheme... Becke
Basis function cutoff            BFCut       ... 1.0000e-11
Integration weight cutoff        WCut        ... 1.0000e-14
Angular grids for H and He will be reduced by one unit
Partially contracted basis set               ... off
Rotationally invariant grid construction     ... off

Total number of grid points                  ...    90151
Total number of batches                      ...     1417
Average number of points per batch           ...       63
Average number of grid points per atom       ...     5008
Time for grid setup =    3.756 sec

--------------------
COSX GRID GENERATION
--------------------

GRIDX 1
-------
General Integration Accuracy     IntAcc      ... 3.816
Radial Grid Type                 RadialGrid  ... OptM3 with GC (2021)
Angular Grid (max. ang.)         AngularGrid ... 1 (Lebedev-50)
Angular grid pruning method      GridPruning ... 4 (adaptive)
Weight generation scheme         WeightScheme... Becke
Basis function cutoff            BFCut       ... 1.0000e-11
Integration weight cutoff        WCut        ... 1.0000e-14
Angular grids for H and He will be reduced by one unit
Partially contracted basis set               ... on
Rotationally invariant grid construction     ... off

Total number of grid points                  ...    11402
Total number of batches                      ...      186
Average number of points per batch           ...       61
Average number of grid points per atom       ...      633
UseSFitting                                  ... on

GRIDX 2
-------
General Integration Accuracy     IntAcc      ... 4.020
Radial Grid Type                 RadialGrid  ... OptM3 with GC (2021)
Angular Grid (max. ang.)         AngularGrid ... 2 (Lebedev-110)
Angular grid pruning method      GridPruning ... 4 (adaptive)
Weight generation scheme         WeightScheme... Becke
Basis function cutoff            BFCut       ... 1.0000e-11
Integration weight cutoff        WCut        ... 1.0000e-14
Angular grids for H and He will be reduced by one unit
Partially contracted basis set               ... on
Rotationally invariant grid construction     ... off

Total number of grid points                  ...    25317
Total number of batches                      ...      406
Average number of points per batch           ...       62
Average number of grid points per atom       ...     1406
UseSFitting                                  ... on

GRIDX 3
-------
General Integration Accuracy     IntAcc      ... 4.338
Radial Grid Type                 RadialGrid  ... OptM3 with GC (2021)
Angular Grid (max. ang.)         AngularGrid ... 3 (Lebedev-194)
Angular grid pruning method      GridPruning ... 4 (adaptive)
Weight generation scheme         WeightScheme... Becke
Basis function cutoff            BFCut       ... 1.0000e-11
Integration weight cutoff        WCut        ... 1.0000e-14
Angular grids for H and He will be reduced by one unit
Partially contracted basis set               ... on
Rotationally invariant grid construction     ... off

Total number of grid points                  ...    56227
Total number of batches                      ...      886
Average number of points per batch           ...       63
Average number of grid points per atom       ...     3124
UseSFitting                                  ... on

Time for X-Grid setup             =    5.792 sec


--------------------
CPCM SOLVATION MODEL
--------------------
CPCM parameters:
  Epsilon                                         ...      46.8260
  Refrac                                          ...       1.4170
  Rsolv                                           ...       1.3000
  Surface type                                    ... GAUSSIAN VDW
  Epsilon function type                           ...         CPCM
Solvent:                                     ... DMSO
SMD-CDS solvent descriptors:
  Soln                                       ...    1.4170
  Soln25                                     ...    1.4773
  Sola                                       ...    0.0000
  Solb                                       ...    0.8800
  Solg                                       ...   61.7800
  Solc                                       ...    0.0000
  Solh                                       ...    0.0000
Radii:
 Radius for C  used is    3.4960 Bohr (=   1.8500 Ang.)
 Radius for S  used is    4.7054 Bohr (=   2.4900 Ang.)
 Radius for O  used is    4.3350 Bohr (=   2.2940 Ang.)
 Radius for H  used is    2.2677 Bohr (=   1.2000 Ang.)
Calculating surface                               ...        done! (  0.0s)
GEPOL surface points                              ...          997
GEPOL Volume                                      ...    1476.6496
GEPOL Surface-area                                ...     790.7080
Calculating surface distance matrix               ...        done! (  0.0s)
Performing Cholesky decomposition & store         ...        done! (  0.1s)
Overall time for CPCM initialization              ...                 0.1s
--------------
SCF ITERATIONS
--------------
ITER       Energy         Delta-E        Max-DP      RMS-DP      [F,P]     Damp
               ***  Starting incremental Fock matrix formation  ***
  0   -856.7479584278   0.000000000000 0.38768538  0.00189533  0.1728994 0.7000
  1   -856.9655048006  -0.217546372852 0.22280435  0.00109454  0.0603925 0.7000
                               ***Turning on DIIS***
  2   -857.0287646308  -0.063259830132 0.06640301  0.00094699  0.0274321 0.0000
  3   -857.1354955227  -0.106730891962 0.26944715  0.00130404  0.0546148 0.0000
  4   -857.1735436706  -0.038048147819 0.05891900  0.00035826  0.0162313 0.0000
  5   -857.1778847313  -0.004341060776 0.04217205  0.00022481  0.0191097 0.0000
  6   -857.1796771814  -0.001792450021 0.02193158  0.00011317  0.0048688 0.0000
  7   -857.1803009409  -0.000623759546 0.00976273  0.00005577  0.0040013 0.0000
  8   -857.1806494860  -0.000348545132 0.00772211  0.00004604  0.0023476 0.0000
  9   -857.1809215521  -0.000272066112 0.00708513  0.00004426  0.0017012 0.0000
 10   -857.1811430270  -0.000221474832 0.00470068  0.00003336  0.0017021 0.0000
 11   -857.1813096408  -0.000166613845 0.00590798  0.00004191  0.0014676 0.0000
 12   -857.1814606374  -0.000150996610 0.00239606  0.00002159  0.0015313 0.0000
 13   -857.1815649444  -0.000104306961 0.00811986  0.00005603  0.0011518 0.0000
 14   -857.1816575012  -0.000092556839 0.00207200  0.00001942  0.0024697 0.0000
 15   -857.1817488011  -0.000091299911 0.00273972  0.00002197  0.0012449 0.0000
 16   -857.1818112881  -0.000062486961 0.00346535  0.00002622  0.0011467 0.0000
 17   -857.1818526589  -0.000041370755 0.00078146  0.00001118  0.0017791 0.0000
 18   -857.1818940243  -0.000041365422 0.00378171  0.00004622  0.0006591 0.0000
               *** Restarting incremental Fock matrix formation ***
                                   *** Resetting DIIS ***
 19   -857.1819613416  -0.000067317365 0.00410653  0.00002516  0.0016258 0.0000

 WARNING: the maximum gradient error descreased on average only by a factor   1.0
          during the last 20 iterations

                      *** Initiating the TRAH-SCF procedure ***


TRAH GRIDX
----------

General Integration Accuracy     IntAcc      ... 3.067
Radial Grid Type                 RadialGrid  ... OptM3 with GC (2021)
Angular Grid (max. ang.)         AngularGrid ... 1 (Lebedev-50)
Angular grid pruning method      GridPruning ... 4 (adaptive)
Weight generation scheme         WeightScheme... Becke
Basis function cutoff            BFCut       ... 1.0000e-11
Integration weight cutoff        WCut        ... 1.0000e-14
Angular grids for H and He will be reduced by one unit
Partially contracted basis set               ... on
Rotationally invariant grid construction     ... off

Total number of grid points                  ...     6144
Total number of batches                      ...      108
Average number of points per batch           ...       56
Average number of grid points per atom       ...      341


TRAH GRID
---------

General Integration Accuracy     IntAcc      ... 3.467
Radial Grid Type                 RadialGrid  ... OptM3 with GC (2021)
Angular Grid (max. ang.)         AngularGrid ... 1 (Lebedev-50)
Angular grid pruning method      GridPruning ... 4 (adaptive)
Weight generation scheme         WeightScheme... Becke
Basis function cutoff            BFCut       ... 1.0000e-11
Integration weight cutoff        WCut        ... 1.0000e-14
Angular grids for H and He will be reduced by one unit
Partially contracted basis set               ... off
Rotationally invariant grid construction     ... off

Total number of grid points                  ...    13278
Total number of batches                      ...      215
Average number of points per batch           ...       61
Average number of grid points per atom       ...      738

 --------------------------------------------------------------------------------------------
   Iter.        energy            ||Error||_2        Shift      TRadius  Mac/Mic        Rej.
 --------------------------------------------------------------------------------------------
    0       -857.181968899227     5.445523e-03                     0.400 (TRAH MAcro)   No
    0     dE    -6.177313e-06     8.162009e-03    -6.1773e-06      0.001 (TRAH MIcro)
    0     dE    -1.632255e-05     2.681488e-03    -1.6322e-05      0.008 (TRAH MIcro)
    0     dE    -2.270718e-05     3.958662e-03    -2.2701e-05      0.016 (TRAH MIcro)
    0     dE    -2.773664e-05     1.818745e-03    -2.7721e-05      0.024 (TRAH MIcro)
    0     dE    -2.822893e-05     4.180561e-04    -2.8211e-05      0.025 (TRAH MIcro)
    1       -857.181997643672     4.604989e-04                           (NR   MAcro)
    1     dE    -1.650581e-07     2.983196e-04                           (NR   MIcro)
    1     dE    -2.762826e-07     3.244666e-04                           (NR   MIcro)
    1     dE    -4.136969e-07     2.637881e-04                           (NR   MIcro)
    1     dE    -4.790849e-07     1.760067e-04                           (NR   MIcro)
    1     dE    -5.020426e-07     9.800034e-05                           (NR   MIcro)
    1     dE    -5.135919e-07     8.882735e-05                           (NR   MIcro)
    1     dE    -5.202536e-07     5.686807e-05                           (NR   MIcro)
    1     dE    -5.221397e-07     3.028847e-05                           (NR   MIcro)
    1     dE    -5.228435e-07     1.994213e-05                           (NR   MIcro)
    1     dE    -5.230110e-07     1.019756e-05                           (NR   MIcro)
    1     dE    -5.230831e-07     7.001880e-06                           (NR   MIcro)
    1     dE    -5.231010e-07     2.845167e-06                           (NR   MIcro)
    1     dE    -5.231076e-07     2.786249e-06                           (NR   MIcro)
    1     dE    -5.231098e-07     9.733550e-07                           (NR   MIcro)
    2       -857.181998162919     6.794730e-06                           (NR   MAcro)
    2     dE    -1.370929e-11     1.533969e-06                           (NR   MIcro)
    2     dE    -1.478097e-11     8.290297e-07                           (NR   MIcro)
    3       -857.181998162918     8.308844e-07                           (NR   MAcro)

               *****************************************************
               *                     SUCCESS                       *
               *           SCF CONVERGED AFTER  45 CYCLES          *
               *****************************************************

Old exchange energy                            =    -21.349855380 Eh
New exchange energy                            =    -21.349837335 Eh
Exchange energy change after final integration =      0.000018045 Eh
Total energy after final integration           =   -857.181980118 Eh
Final COS-X integration done in                =    10.121 sec

SMD CDS free energy correction energy :                -2.11985     Kcal/mol
Total Energy after SMD CDS correction =              -857.185358318 Eh

----------------
TOTAL SCF ENERGY
----------------

Total Energy       :         -857.18535832 Eh          -23325.19943 eV

Components:
Nuclear Repulsion  :          631.48928592 Eh           17183.69707 eV
Electronic Energy  :        -1488.67464423 Eh          -40508.89650 eV
One Electron Energy:        -2426.80295052 Eh          -66036.66552 eV
Two Electron Energy:          938.12830629 Eh           25527.76902 eV
Max COSX asymmetry :            0.00000048 Eh               0.00001 eV
CPCM Dielectric    :           -0.01684963 Eh              -0.45850 eV
SMD CDS (Gcds)     :           -0.00337820 Eh              -0.09193 eV

Virial components:
Potential Energy   :        -1711.69968090 Eh          -46577.71628 eV
Kinetic Energy     :          854.51432259 Eh           23252.51685 eV
Virial Ratio       :            2.00312579


DFT components:
N(Alpha)           :       44.000016612015 electrons
N(Beta)            :       43.000015809296 electrons
N(Total)           :       87.000032421311 electrons
E(X)               :      -63.890695047931 Eh       
E(C)               :       -2.993107845735 Eh       
E(XC)              :      -66.883802893666 Eh       
DFET-embed. en.    :        0.000000000000 Eh       
CPCM Solvation Model Properties:
Surface-charge          :           -0.02262177
Charge-correction       :            0.00030517 Eh               0.00830 eV
Free-energy (cav+disp)  :           -0.00337820 Eh              -0.09193 eV

---------------
SCF CONVERGENCE
---------------

  Last Energy change         ...    1.3642e-12  Tolerance :   1.0000e-08
  Last Orbital Gradient      ...    8.3088e-07  Tolerance :   1.0000e-05
  Last Orbital Rotation      ...    4.9096e-06

             **** THE GBW FILE WAS UPDATED (/burg/berkelbach/users/eav2136/projects/peroxide_dissociation/04_solvated_radical/dmso/dmso_radical_opt.gbw) ****
             **** DENSITY /burg/berkelbach/users/eav2136/projects/peroxide_dissociation/04_solvated_radical/dmso/dmso_radical_opt.scfp WAS UPDATED ****
             **** ENERGY FILE WAS UPDATED (/burg/berkelbach/users/eav2136/projects/peroxide_dissociation/04_solvated_radical/dmso/dmso_radical_opt.en.tmp) ****
----------------------
UHF SPIN CONTAMINATION
----------------------

Warning: in a DFT calculation there is little theoretical justification to 
         calculate <S**2> as in Hartree-Fock theory. We will do it anyways
         but you should keep in mind that the values have only limited relevance

Expectation value of <S**2>     :     0.757170
Ideal value S*(S+1) for S=0.5   :     0.750000
Deviation                       :     0.007170

             **** THE GBW FILE WAS UPDATED (/burg/berkelbach/users/eav2136/projects/peroxide_dissociation/04_solvated_radical/dmso/dmso_radical_opt.gbw) ****
             **** DENSITY /burg/berkelbach/users/eav2136/projects/peroxide_dissociation/04_solvated_radical/dmso/dmso_radical_opt.scfp WAS UPDATED ****
----------------
ORBITAL ENERGIES
----------------
                 SPIN UP ORBITALS
  NO   OCC          E(Eh)            E(eV) 
   0   1.0000     -89.041476     -2422.9418 
   1   1.0000     -19.280086      -524.6378 
   2   1.0000     -19.222119      -523.0604 
   3   1.0000     -10.363937      -282.0171 
   4   1.0000     -10.281082      -279.7625 
   5   1.0000     -10.256240      -279.0865 
   6   1.0000     -10.248676      -278.8807 
   7   1.0000     -10.246263      -278.8150 
   8   1.0000     -10.244896      -278.7778 
   9   1.0000     -10.241613      -278.6885 
  10   1.0000     -10.239612      -278.6340 
  11   1.0000      -8.019889      -218.2323 
  12   1.0000      -5.956227      -162.0772 
  13   1.0000      -5.952524      -161.9764 
  14   1.0000      -5.949543      -161.8953 
  15   1.0000      -1.141893       -31.0725 
  16   1.0000      -1.038134       -28.2491 
  17   1.0000      -0.915665       -24.9165 
  18   1.0000      -0.847866       -23.0716 
  19   1.0000      -0.791501       -21.5378 
  20   1.0000      -0.783475       -21.3194 
  21   1.0000      -0.698417       -19.0049 
  22   1.0000      -0.649248       -17.6669 
  23   1.0000      -0.629830       -17.1386 
  24   1.0000      -0.589726       -16.0473 
  25   1.0000      -0.545895       -14.8545 
  26   1.0000      -0.509949       -13.8764 
  27   1.0000      -0.495915       -13.4945 
  28   1.0000      -0.489667       -13.3245 
  29   1.0000      -0.471731       -12.8365 
  30   1.0000      -0.461962       -12.5706 
  31   1.0000      -0.450668       -12.2633 
  32   1.0000      -0.447772       -12.1845 
  33   1.0000      -0.428142       -11.6503 
  34   1.0000      -0.410719       -11.1762 
  35   1.0000      -0.402872       -10.9627 
  36   1.0000      -0.382344       -10.4041 
  37   1.0000      -0.371447       -10.1076 
  38   1.0000      -0.347787        -9.4638 
  39   1.0000      -0.343924        -9.3587 
  40   1.0000      -0.329768        -8.9734 
  41   1.0000      -0.315397        -8.5824 
  42   1.0000      -0.286804        -7.8043 
  43   1.0000      -0.238016        -6.4767 
  44   0.0000      -0.048786        -1.3275 
  45   0.0000      -0.022838        -0.6215 
  46   0.0000       0.025519         0.6944 
  47   0.0000       0.031398         0.8544 
  48   0.0000       0.061787         1.6813 
  49   0.0000       0.084081         2.2880 
  50   0.0000       0.093696         2.5496 
  51   0.0000       0.098131         2.6703 
  52   0.0000       0.114316         3.1107 
  53   0.0000       0.116941         3.1821 
  54   0.0000       0.121455         3.3050 
  55   0.0000       0.131681         3.5832 
  56   0.0000       0.140473         3.8225 
  57   0.0000       0.152589         4.1522 
  58   0.0000       0.154982         4.2173 
  59   0.0000       0.177951         4.8423 
  60   0.0000       0.182272         4.9599 
  61   0.0000       0.205405         5.5894 
  62   0.0000       0.220048         5.9878 
  63   0.0000       0.225236         6.1290 
  64   0.0000       0.225683         6.1411 
  65   0.0000       0.234303         6.3757 
  66   0.0000       0.239642         6.5210 
  67   0.0000       0.244850         6.6627 
  68   0.0000       0.250600         6.8192 
  69   0.0000       0.258727         7.0403 
  70   0.0000       0.262674         7.1477 
  71   0.0000       0.283393         7.7115 
  72   0.0000       0.288139         7.8407 
  73   0.0000       0.298991         8.1359 
  74   0.0000       0.310085         8.4378 
  75   0.0000       0.320786         8.7290 
  76   0.0000       0.323968         8.8156 
  77   0.0000       0.342701         9.3254 
  78   0.0000       0.349682         9.5153 
  79   0.0000       0.351897         9.5756 
  80   0.0000       0.368272        10.0212 
  81   0.0000       0.368903        10.0384 
  82   0.0000       0.382651        10.4125 
  83   0.0000       0.393796        10.7157 
  84   0.0000       0.410020        11.1572 
  85   0.0000       0.411323        11.1927 
  86   0.0000       0.412585        11.2270 
  87   0.0000       0.423192        11.5156 
  88   0.0000       0.432391        11.7660 
  89   0.0000       0.436755        11.8847 
  90   0.0000       0.444867        12.1055 
  91   0.0000       0.451797        12.2940 
  92   0.0000       0.463617        12.6157 
  93   0.0000       0.468143        12.7388 
  94   0.0000       0.477655        12.9977 
  95   0.0000       0.485945        13.2232 
  96   0.0000       0.493329        13.4242 
  97   0.0000       0.505925        13.7669 
  98   0.0000       0.518743        14.1157 
  99   0.0000       0.523960        14.2577 
 100   0.0000       0.541541        14.7361 
 101   0.0000       0.552504        15.0344 
 102   0.0000       0.559256        15.2181 
 103   0.0000       0.568709        15.4754 
 104   0.0000       0.577523        15.7152 
 105   0.0000       0.586558        15.9611 
 106   0.0000       0.590497        16.0682 
 107   0.0000       0.619516        16.8579 
 108   0.0000       0.628376        17.0990 
 109   0.0000       0.639216        17.3940 
 110   0.0000       0.656889        17.8748 
 111   0.0000       0.667738        18.1701 
 112   0.0000       0.680898        18.5282 
 113   0.0000       0.690949        18.8017 
 114   0.0000       0.697232        18.9727 
 115   0.0000       0.704686        19.1755 
 116   0.0000       0.727662        19.8007 
 117   0.0000       0.740798        20.1581 
 118   0.0000       0.754012        20.5177 
 119   0.0000       0.771080        20.9822 
 120   0.0000       0.775546        21.1037 
 121   0.0000       0.784939        21.3593 
 122   0.0000       0.799712        21.7613 
 123   0.0000       0.814891        22.1743 
 124   0.0000       0.835877        22.7454 
 125   0.0000       0.846677        23.0393 
 126   0.0000       0.848529        23.0897 
 127   0.0000       0.856571        23.3085 
 128   0.0000       0.883698        24.0466 
 129   0.0000       0.903703        24.5910 
 130   0.0000       0.919463        25.0199 
 131   0.0000       0.928590        25.2682 
 132   0.0000       0.938047        25.5256 
 133   0.0000       0.951146        25.8820 
 134   0.0000       0.965463        26.2716 
 135   0.0000       0.972328        26.4584 
 136   0.0000       0.990309        26.9477 
 137   0.0000       0.998790        27.1785 
 138   0.0000       1.019662        27.7464 
 139   0.0000       1.039131        28.2762 
 140   0.0000       1.045882        28.4599 
 141   0.0000       1.077987        29.3335 
 142   0.0000       1.124425        30.5972 
 143   0.0000       1.141702        31.0673 
 144   0.0000       1.158771        31.5318 
 145   0.0000       1.166717        31.7480 
 146   0.0000       1.201975        32.7074 
 147   0.0000       1.216735        33.1091 
 148   0.0000       1.231212        33.5030 
 149   0.0000       1.243697        33.8427 
 150   0.0000       1.251153        34.0456 
 151   0.0000       1.257678        34.2232 
 152   0.0000       1.291133        35.1335 
 153   0.0000       1.299433        35.3594 
 154   0.0000       1.328722        36.1564 
 155   0.0000       1.338808        36.4308 
 156   0.0000       1.356417        36.9100 
 157   0.0000       1.368246        37.2319 
 158   0.0000       1.415777        38.5252 
 159   0.0000       1.440053        39.1858 
 160   0.0000       1.464142        39.8413 
 161   0.0000       1.474213        40.1154 
 162   0.0000       1.484104        40.3845 
 163   0.0000       1.489417        40.5291 
 164   0.0000       1.504205        40.9315 
 165   0.0000       1.512556        41.1587 
 166   0.0000       1.515761        41.2460 
 167   0.0000       1.518522        41.3211 
 168   0.0000       1.531933        41.6860 
 169   0.0000       1.549759        42.1711 
 170   0.0000       1.551477        42.2178 
 171   0.0000       1.558332        42.4044 
 172   0.0000       1.562350        42.5137 
 173   0.0000       1.585148        43.1341 
 174   0.0000       1.594306        43.3833 
 175   0.0000       1.609348        43.7926 
 176   0.0000       1.612368        43.8748 
 177   0.0000       1.626123        44.2491 
 178   0.0000       1.646818        44.8122 
 179   0.0000       1.663156        45.2568 
 180   0.0000       1.681136        45.7460 
 181   0.0000       1.689170        45.9647 
 182   0.0000       1.692801        46.0635 
 183   0.0000       1.700973        46.2858 
 184   0.0000       1.720738        46.8237 
 185   0.0000       1.734494        47.1980 
 186   0.0000       1.772142        48.2224 
 187   0.0000       1.783433        48.5297 
 188   0.0000       1.806724        49.1635 
 189   0.0000       1.826486        49.7012 
 190   0.0000       1.830700        49.8159 
 191   0.0000       1.842834        50.1461 
 192   0.0000       1.852605        50.4119 
 193   0.0000       1.860588        50.6292 
 194   0.0000       1.868136        50.8346 
 195   0.0000       1.880094        51.1599 
 196   0.0000       1.886815        51.3429 
 197   0.0000       1.913616        52.0721 
 198   0.0000       1.923800        52.3493 
 199   0.0000       1.954728        53.1909 
 200   0.0000       1.979578        53.8671 
 201   0.0000       2.017772        54.9064 
 202   0.0000       2.030417        55.2505 
 203   0.0000       2.047754        55.7222 
 204   0.0000       2.062995        56.1370 
 205   0.0000       2.077973        56.5445 
 206   0.0000       2.083643        56.6988 
 207   0.0000       2.091590        56.9151 
 208   0.0000       2.106972        57.3336 
 209   0.0000       2.132977        58.0413 
 210   0.0000       2.144625        58.3582 
 211   0.0000       2.169012        59.0218 
 212   0.0000       2.183841        59.4253 
 213   0.0000       2.189204        59.5713 
 214   0.0000       2.219733        60.4020 
 215   0.0000       2.239071        60.9282 
 216   0.0000       2.244748        61.0827 
 217   0.0000       2.260546        61.5126 
 218   0.0000       2.272803        61.8461 
 219   0.0000       2.316817        63.0438 
 220   0.0000       2.341194        63.7071 
 221   0.0000       2.357568        64.1527 
 222   0.0000       2.366051        64.3835 
 223   0.0000       2.407353        65.5074 
 224   0.0000       2.417513        65.7839 
 225   0.0000       2.429108        66.0994 
 226   0.0000       2.453335        66.7586 
 227   0.0000       2.525418        68.7201 
 228   0.0000       2.545949        69.2788 
 229   0.0000       2.556136        69.5560 
 230   0.0000       2.575954        70.0953 
 231   0.0000       2.588294        70.4311 
 232   0.0000       2.594617        70.6031 
 233   0.0000       2.614219        71.1365 
 234   0.0000       2.620832        71.3165 
 235   0.0000       2.642917        71.9174 
 236   0.0000       2.646964        72.0275 
 237   0.0000       2.656506        72.2872 
 238   0.0000       2.690111        73.2016 
 239   0.0000       2.693021        73.2808 
 240   0.0000       2.702988        73.5520 
 241   0.0000       2.719592        74.0039 
 242   0.0000       2.745212        74.7010 
 243   0.0000       2.752549        74.9007 
 244   0.0000       2.757815        75.0440 
 245   0.0000       2.764979        75.2389 
 246   0.0000       2.787569        75.8536 
 247   0.0000       2.804352        76.3103 
 248   0.0000       2.821939        76.7889 
 249   0.0000       2.840199        77.2857 
 250   0.0000       2.851773        77.6007 
 251   0.0000       2.871129        78.1274 
 252   0.0000       2.889435        78.6255 
 253   0.0000       2.903240        79.0012 
 254   0.0000       2.915615        79.3379 
 255   0.0000       2.933788        79.8324 
 256   0.0000       2.952191        80.3332 
 257   0.0000       2.957825        80.4865 
 258   0.0000       2.976513        80.9950 
 259   0.0000       2.980278        81.0975 
 260   0.0000       3.000853        81.6574 
 261   0.0000       3.013080        81.9901 
 262   0.0000       3.024372        82.2974 
 263   0.0000       3.043884        82.8283 
 264   0.0000       3.052515        83.0631 
 265   0.0000       3.058211        83.2182 
 266   0.0000       3.084990        83.9469 
 267   0.0000       3.119575        84.8880 
 268   0.0000       3.125978        85.0622 
 269   0.0000       3.135397        85.3185 
 270   0.0000       3.144570        85.5681 
 271   0.0000       3.156773        85.9002 
 272   0.0000       3.168199        86.2111 
 273   0.0000       3.178849        86.5009 
 274   0.0000       3.191123        86.8349 
 275   0.0000       3.211866        87.3993 
 276   0.0000       3.220000        87.6207 
 277   0.0000       3.251221        88.4702 
 278   0.0000       3.269455        88.9664 
 279   0.0000       3.272729        89.0555 
 280   0.0000       3.289184        89.5032 
 281   0.0000       3.304820        89.9287 
 282   0.0000       3.321148        90.3730 
 283   0.0000       3.341396        90.9240 
 284   0.0000       3.357081        91.3508 
 285   0.0000       3.360742        91.4504 
 286   0.0000       3.365250        91.5731 
 287   0.0000       3.384063        92.0850 
 288   0.0000       3.394840        92.3783 
 289   0.0000       3.401845        92.5689 
 290   0.0000       3.408038        92.7374 
 291   0.0000       3.429697        93.3268 
 292   0.0000       3.433603        93.4331 
 293   0.0000       3.471683        94.4693 
 294   0.0000       3.475689        94.5783 
 295   0.0000       3.489741        94.9607 
 296   0.0000       3.500141        95.2437 
 297   0.0000       3.501157        95.2713 
 298   0.0000       3.522634        95.8558 
 299   0.0000       3.546543        96.5063 
 300   0.0000       3.553166        96.6866 
 301   0.0000       3.568270        97.0976 
 302   0.0000       3.589770        97.6826 
 303   0.0000       3.600741        97.9811 
 304   0.0000       3.647404        99.2509 
 305   0.0000       3.664914        99.7274 
 306   0.0000       3.684197       100.2521 
 307   0.0000       3.717648       101.1623 
 308   0.0000       3.748950       102.0141 
 309   0.0000       3.786866       103.0459 
 310   0.0000       3.793861       103.2362 
 311   0.0000       3.835992       104.3827 
 312   0.0000       3.861568       105.0786 
 313   0.0000       3.909016       106.3697 
 314   0.0000       3.920642       106.6861 
 315   0.0000       3.941842       107.2630 
 316   0.0000       3.983227       108.3891 
 317   0.0000       4.044068       110.0447 
 318   0.0000       4.072765       110.8256 
 319   0.0000       4.126659       112.2921 
 320   0.0000       4.172567       113.5413 
 321   0.0000       4.184457       113.8649 
 322   0.0000       4.202996       114.3693 
 323   0.0000       4.209033       114.5336 
 324   0.0000       4.215305       114.7043 
 325   0.0000       4.240699       115.3953 
 326   0.0000       4.258130       115.8696 
 327   0.0000       4.279860       116.4609 
 328   0.0000       4.298117       116.9577 
 329   0.0000       4.320492       117.5666 
 330   0.0000       4.347065       118.2897 
 331   0.0000       4.378917       119.1564 
 332   0.0000       4.432610       120.6175 
 333   0.0000       4.448263       121.0434 
 334   0.0000       4.491651       122.2240 
 335   0.0000       4.524295       123.1123 
 336   0.0000       4.565282       124.2277 
 337   0.0000       4.663891       126.9109 
 338   0.0000       4.669217       127.0559 
 339   0.0000       4.692589       127.6918 
 340   0.0000       4.711368       128.2028 
 341   0.0000       4.878259       132.7442 
 342   0.0000       4.941568       134.4669 
 343   0.0000       4.954842       134.8281 
 344   0.0000       4.990959       135.8109 
 345   0.0000       5.097194       138.7017 
 346   0.0000       5.097987       138.7233 
 347   0.0000       5.141161       139.8981 
 348   0.0000       5.143937       139.9737 
 349   0.0000       5.176394       140.8568 
 350   0.0000       5.207481       141.7028 
 351   0.0000       5.233865       142.4207 
 352   0.0000       5.341801       145.3578 
 353   0.0000       5.374546       146.2488 
 354   0.0000       5.456351       148.4749 
 355   0.0000       5.488381       149.3464 
 356   0.0000       5.530019       150.4795 
 357   0.0000       5.584163       151.9528 
 358   0.0000       5.633692       153.3006 
 359   0.0000       5.736585       156.1004 
 360   0.0000       5.855521       159.3368 
 361   0.0000       6.052655       164.7011 
 362   0.0000       6.197425       168.6405 
 363   0.0000       6.281756       170.9353 
 364   0.0000       6.374115       173.4485 
 365   0.0000       6.392456       173.9476 
 366   0.0000       6.415654       174.5788 
 367   0.0000       6.521360       177.4552 
 368   0.0000       6.713527       182.6844 
 369   0.0000       6.723708       182.9614 
 370   0.0000       6.831902       185.9055 
 371   0.0000       6.869782       186.9363 
 372   0.0000       7.004153       190.5927 
 373   0.0000       7.107896       193.4157 
 374   0.0000       7.127010       193.9358 
 375   0.0000       8.934876       243.1303 
 376   0.0000       9.388724       255.4802 
 377   0.0000       9.556607       260.0485 
 378   0.0000      20.118975       547.4652 
 379   0.0000      22.033334       599.5575 
 380   0.0000      22.279249       606.2492 
 381   0.0000      22.749908       619.0565 
 382   0.0000      22.763870       619.4364 
 383   0.0000      22.815364       620.8376 
 384   0.0000      22.893265       622.9574 
 385   0.0000      23.251301       632.7001 
 386   0.0000      23.394051       636.5845 
 387   0.0000      43.730186      1189.9589 
 388   0.0000      43.930569      1195.4116 

                 SPIN DOWN ORBITALS
  NO   OCC          E(Eh)            E(eV) 
   0   1.0000     -89.041134     -2422.9324 
   1   1.0000     -19.258002      -524.0369 
   2   1.0000     -19.217897      -522.9456 
   3   1.0000     -10.364816      -282.0410 
   4   1.0000     -10.280556      -279.7481 
   5   1.0000     -10.255669      -279.0709 
   6   1.0000     -10.248366      -278.8722 
   7   1.0000     -10.246119      -278.8111 
   8   1.0000     -10.244920      -278.7784 
   9   1.0000     -10.241495      -278.6852 
  10   1.0000     -10.239730      -278.6372 
  11   1.0000      -8.019571      -218.2236 
  12   1.0000      -5.956031      -162.0719 
  13   1.0000      -5.952348      -161.9716 
  14   1.0000      -5.948423      -161.8648 
  15   1.0000      -1.125016       -30.6132 
  16   1.0000      -0.991601       -26.9828 
  17   1.0000      -0.914199       -24.8766 
  18   1.0000      -0.845960       -23.0197 
  19   1.0000      -0.790946       -21.5227 
  20   1.0000      -0.781680       -21.2706 
  21   1.0000      -0.696740       -18.9593 
  22   1.0000      -0.648266       -17.6402 
  23   1.0000      -0.626536       -17.0489 
  24   1.0000      -0.586691       -15.9647 
  25   1.0000      -0.526371       -14.3233 
  26   1.0000      -0.507782       -13.8175 
  27   1.0000      -0.487297       -13.2600 
  28   1.0000      -0.479516       -13.0483 
  29   1.0000      -0.469683       -12.7807 
  30   1.0000      -0.456290       -12.4163 
  31   1.0000      -0.448499       -12.2043 
  32   1.0000      -0.446543       -12.1511 
  33   1.0000      -0.421930       -11.4813 
  34   1.0000      -0.406941       -11.0734 
  35   1.0000      -0.392189       -10.6720 
  36   1.0000      -0.370902       -10.0928 
  37   1.0000      -0.343608        -9.3500 
  38   1.0000      -0.330308        -8.9882 
  39   1.0000      -0.320499        -8.7212 
  40   1.0000      -0.305092        -8.3020 
  41   1.0000      -0.285747        -7.7756 
  42   1.0000      -0.235259        -6.4017 
  43   0.0000      -0.171825        -4.6756 
  44   0.0000      -0.044350        -1.2068 
  45   0.0000      -0.020823        -0.5666 
  46   0.0000       0.026866         0.7311 
  47   0.0000       0.032486         0.8840 
  48   0.0000       0.062388         1.6977 
  49   0.0000       0.084545         2.3006 
  50   0.0000       0.094700         2.5769 
  51   0.0000       0.099062         2.6956 
  52   0.0000       0.115223         3.1354 
  53   0.0000       0.117271         3.1911 
  54   0.0000       0.122230         3.3260 
  55   0.0000       0.133279         3.6267 
  56   0.0000       0.141227         3.8430 
  57   0.0000       0.154494         4.2040 
  58   0.0000       0.155623         4.2347 
  59   0.0000       0.179165         4.8753 
  60   0.0000       0.185509         5.0480 
  61   0.0000       0.206028         5.6063 
  62   0.0000       0.222098         6.0436 
  63   0.0000       0.225985         6.1494 
  64   0.0000       0.226657         6.1677 
  65   0.0000       0.236680         6.4404 
  66   0.0000       0.241557         6.5731 
  67   0.0000       0.246792         6.7155 
  68   0.0000       0.252175         6.8620 
  69   0.0000       0.259782         7.0690 
  70   0.0000       0.263799         7.1783 
  71   0.0000       0.284829         7.7506 
  72   0.0000       0.289262         7.8712 
  73   0.0000       0.300686         8.1821 
  74   0.0000       0.311488         8.4760 
  75   0.0000       0.321404         8.7459 
  76   0.0000       0.325987         8.8706 
  77   0.0000       0.344249         9.3675 
  78   0.0000       0.351132         9.5548 
  79   0.0000       0.353129         9.6091 
  80   0.0000       0.369705        10.0602 
  81   0.0000       0.372982        10.1494 
  82   0.0000       0.383262        10.4291 
  83   0.0000       0.395027        10.7492 
  84   0.0000       0.411130        11.1874 
  85   0.0000       0.412982        11.2378 
  86   0.0000       0.415947        11.3185 
  87   0.0000       0.423721        11.5300 
  88   0.0000       0.434093        11.8123 
  89   0.0000       0.438663        11.9366 
  90   0.0000       0.445377        12.1193 
  91   0.0000       0.453924        12.3519 
  92   0.0000       0.465730        12.6732 
  93   0.0000       0.470351        12.7989 
  94   0.0000       0.478198        13.0124 
  95   0.0000       0.486971        13.2511 
  96   0.0000       0.494434        13.4542 
  97   0.0000       0.509043        13.8518 
  98   0.0000       0.520001        14.1499 
  99   0.0000       0.526305        14.3215 
 100   0.0000       0.547681        14.9032 
 101   0.0000       0.553931        15.0732 
 102   0.0000       0.570677        15.5289 
 103   0.0000       0.572012        15.5652 
 104   0.0000       0.581720        15.8294 
 105   0.0000       0.589168        16.0321 
 106   0.0000       0.592221        16.1151 
 107   0.0000       0.621830        16.9208 
 108   0.0000       0.629295        17.1240 
 109   0.0000       0.641619        17.4593 
 110   0.0000       0.660776        17.9806 
 111   0.0000       0.669048        18.2057 
 112   0.0000       0.684737        18.6326 
 113   0.0000       0.692597        18.8465 
 114   0.0000       0.698616        19.0103 
 115   0.0000       0.707661        19.2564 
 116   0.0000       0.728234        19.8163 
 117   0.0000       0.741823        20.1860 
 118   0.0000       0.756917        20.5967 
 119   0.0000       0.772550        21.0222 
 120   0.0000       0.776579        21.1318 
 121   0.0000       0.787412        21.4266 
 122   0.0000       0.800333        21.7782 
 123   0.0000       0.816622        22.2214 
 124   0.0000       0.836826        22.7712 
 125   0.0000       0.849171        23.1071 
 126   0.0000       0.849770        23.1234 
 127   0.0000       0.857096        23.3228 
 128   0.0000       0.884703        24.0740 
 129   0.0000       0.905688        24.6450 
 130   0.0000       0.920005        25.0346 
 131   0.0000       0.929627        25.2964 
 132   0.0000       0.942910        25.6579 
 133   0.0000       0.952772        25.9262 
 134   0.0000       0.968721        26.3603 
 135   0.0000       0.972890        26.4737 
 136   0.0000       0.991356        26.9762 
 137   0.0000       1.000454        27.2237 
 138   0.0000       1.020986        27.7824 
 139   0.0000       1.039459        28.2851 
 140   0.0000       1.046512        28.4771 
 141   0.0000       1.079319        29.3698 
 142   0.0000       1.125696        30.6318 
 143   0.0000       1.143730        31.1225 
 144   0.0000       1.159611        31.5546 
 145   0.0000       1.170865        31.8609 
 146   0.0000       1.204288        32.7704 
 147   0.0000       1.217819        33.1385 
 148   0.0000       1.233048        33.5529 
 149   0.0000       1.244476        33.8639 
 150   0.0000       1.252536        34.0832 
 151   0.0000       1.259212        34.2649 
 152   0.0000       1.292705        35.1763 
 153   0.0000       1.303235        35.4628 
 154   0.0000       1.331249        36.2251 
 155   0.0000       1.341177        36.4953 
 156   0.0000       1.359489        36.9936 
 157   0.0000       1.374307        37.3968 
 158   0.0000       1.423219        38.7278 
 159   0.0000       1.441447        39.2238 
 160   0.0000       1.464788        39.8589 
 161   0.0000       1.475830        40.1594 
 162   0.0000       1.485395        40.4196 
 163   0.0000       1.492066        40.6012 
 164   0.0000       1.507826        41.0300 
 165   0.0000       1.514501        41.2117 
 166   0.0000       1.516642        41.2699 
 167   0.0000       1.523614        41.4596 
 168   0.0000       1.532639        41.7052 
 169   0.0000       1.551469        42.2176 
 170   0.0000       1.557088        42.3705 
 171   0.0000       1.562314        42.5127 
 172   0.0000       1.567289        42.6481 
 173   0.0000       1.590330        43.2751 
 174   0.0000       1.595421        43.4136 
 175   0.0000       1.611312        43.8460 
 176   0.0000       1.618282        44.0357 
 177   0.0000       1.627749        44.2933 
 178   0.0000       1.649398        44.8824 
 179   0.0000       1.666178        45.3390 
 180   0.0000       1.682259        45.7766 
 181   0.0000       1.690291        45.9952 
 182   0.0000       1.696050        46.1519 
 183   0.0000       1.704079        46.3704 
 184   0.0000       1.721838        46.8536 
 185   0.0000       1.740540        47.3625 
 186   0.0000       1.776603        48.3438 
 187   0.0000       1.788641        48.6714 
 188   0.0000       1.808773        49.2192 
 189   0.0000       1.827428        49.7268 
 190   0.0000       1.834141        49.9095 
 191   0.0000       1.844429        50.1895 
 192   0.0000       1.853859        50.4461 
 193   0.0000       1.863154        50.6990 
 194   0.0000       1.869639        50.8755 
 195   0.0000       1.881900        51.2091 
 196   0.0000       1.900105        51.7045 
 197   0.0000       1.916898        52.1614 
 198   0.0000       1.924321        52.3634 
 199   0.0000       1.962237        53.3952 
 200   0.0000       1.980320        53.8873 
 201   0.0000       2.021744        55.0145 
 202   0.0000       2.036118        55.4056 
 203   0.0000       2.053541        55.8797 
 204   0.0000       2.066217        56.2246 
 205   0.0000       2.079358        56.5822 
 206   0.0000       2.089108        56.8475 
 207   0.0000       2.093865        56.9770 
 208   0.0000       2.107952        57.3603 
 209   0.0000       2.135131        58.0999 
 210   0.0000       2.154543        58.6281 
[...]
      f+2     :     0.006477
      f-2     :     0.009506
      f+3     :     0.014221
      f-3     :     0.007411
  3 C s       :     2.761886  s :     2.761886
      pz      :     0.927266  p :     2.923865
      px      :     0.996336
      py      :     1.000263
      dz2     :     0.041301  d :     0.381779
      dxz     :     0.079680
      dyz     :     0.053316
      dx2y2   :     0.091471
      dxy     :     0.116011
      f0      :     0.004846  f :     0.043278
      f+1     :     0.002618
      f-1     :     0.005585
      f+2     :     0.005864
      f-2     :     0.007343
      f+3     :     0.010521
      f-3     :     0.006502
  4 C s       :     2.759368  s :     2.759368
      pz      :     0.914611  p :     2.881615
      px      :     0.987589
      py      :     0.979415
      dz2     :     0.071680  d :     0.384517
      dxz     :     0.056076
      dyz     :     0.066449
      dx2y2   :     0.086848
      dxy     :     0.103463
      f0      :     0.003373  f :     0.042724
      f+1     :     0.005158
      f-1     :     0.005662
      f+2     :     0.006707
      f-2     :     0.007723
      f+3     :     0.008138
      f-3     :     0.005963
  5 C s       :     2.726013  s :     2.726013
      pz      :     0.883767  p :     2.783839
      px      :     1.034178
      py      :     0.865894
      dz2     :     0.067328  d :     0.492519
      dxz     :     0.099932
      dyz     :     0.073741
      dx2y2   :     0.136183
      dxy     :     0.115334
      f0      :     0.005695  f :     0.055087
      f+1     :     0.006845
      f-1     :     0.005338
      f+2     :     0.007324
      f-2     :     0.008931
      f+3     :     0.013552
      f-3     :     0.007403
  6 C s       :     2.758201  s :     2.758201
      pz      :     0.914717  p :     2.894142
      px      :     0.996190
      py      :     0.983235
      dz2     :     0.041987  d :     0.382400
      dxz     :     0.083185
      dyz     :     0.054978
      dx2y2   :     0.089990
      dxy     :     0.112260
      f0      :     0.004822  f :     0.042930
      f+1     :     0.002624
      f-1     :     0.005634
      f+2     :     0.006005
      f-2     :     0.007436
      f+3     :     0.010010
      f-3     :     0.006400
  7 C s       :     2.765075  s :     2.765075
      pz      :     0.929548  p :     2.918027
      px      :     0.986514
      py      :     1.001965
      dz2     :     0.068551  d :     0.387144
      dxz     :     0.057875
      dyz     :     0.063484
      dx2y2   :     0.086758
      dxy     :     0.110477
      f0      :     0.003445  f :     0.043192
      f+1     :     0.005178
      f-1     :     0.005592
      f+2     :     0.006757
      f-2     :     0.007756
      f+3     :     0.008385
      f-3     :     0.006081
  8 C s       :     2.745259  s :     2.745259
      pz      :     0.994289  p :     2.697008
      px      :     0.742602
      py      :     0.960116
      dz2     :     0.275280  d :     1.051993
      dxz     :     0.193687
      dyz     :     0.370233
      dx2y2   :     0.104476
      dxy     :     0.108317
      f0      :     0.025011  f :     0.148971
      f+1     :     0.019089
      f-1     :     0.051324
      f+2     :     0.014673
      f-2     :     0.019286
      f+3     :     0.010575
      f-3     :     0.009012
  9 O s       :     3.442199  s :     3.442199
      pz      :     1.467730  p :     4.414626
      px      :     1.501907
      py      :     1.444989
      dz2     :     0.012015  d :     0.061545
      dxz     :     0.005232
      dyz     :     0.021823
      dx2y2   :     0.014367
      dxy     :     0.008108
      f0      :     0.000588  f :     0.005180
      f+1     :     0.000099
      f-1     :     0.001576
      f+2     :     0.001225
      f-2     :     0.000695
      f+3     :     0.000369
      f-3     :     0.000629
 10 O s       :     3.416002  s :     3.416002
      pz      :     1.483494  p :     4.501352
      px      :     1.399686
      py      :     1.618173
      dz2     :     0.029818  d :     0.062968
      dxz     :     0.014659
      dyz     :     0.017110
      dx2y2   :     0.000654
      dxy     :     0.000727
      f0      :     0.002355  f :     0.005697
      f+1     :     0.001327
      f-1     :     0.001663
      f+2     :     0.000142
      f-2     :     0.000197
      f+3     :     0.000006
      f-3     :     0.000007
 11 H s       :     0.796124  s :     0.796124
      pz      :     0.021231  p :     0.067053
      px      :     0.013035
      py      :     0.032787
 12 H s       :     0.798877  s :     0.798877
      pz      :     0.024607  p :     0.067647
      px      :     0.015226
      py      :     0.027815
 13 H s       :     0.798843  s :     0.798843
      pz      :     0.026240  p :     0.067674
      px      :     0.026731
      py      :     0.014702
 14 H s       :     0.767815  s :     0.767815
      pz      :     0.019071  p :     0.063274
      px      :     0.028418
      py      :     0.015785
 15 H s       :     0.767268  s :     0.767268
      pz      :     0.011457  p :     0.060983
      px      :     0.033254
      py      :     0.016272
 16 H s       :     0.767502  s :     0.767502
      pz      :     0.018288  p :     0.061036
      px      :     0.027458
      py      :     0.015290
 17 H s       :     0.771809  s :     0.771809
      pz      :     0.011816  p :     0.061647
      px      :     0.033807
      py      :     0.016024

SPIN
  0 C s       :    -0.000661  s :    -0.000661
      pz      :    -0.000520  p :    -0.004042
      px      :    -0.002943
      py      :    -0.000578
      dz2     :     0.002035  d :     0.015965
      dxz     :     0.007715
      dyz     :     0.000506
      dx2y2   :     0.001029
      dxy     :     0.004681
      f0      :     0.000003  f :     0.001094
      f+1     :     0.000590
      f-1     :     0.000084
      f+2     :     0.000144
      f-2     :     0.000018
      f+3     :     0.000034
      f-3     :     0.000223
  1 S s       :     0.003929  s :     0.003929
      pz      :     0.143941  p :     0.229502
      px      :     0.010242
      py      :     0.075318
      dz2     :     0.003006  d :     0.011033
      dxz     :     0.002459
      dyz     :     0.003447
      dx2y2   :     0.002295
      dxy     :    -0.000174
      f0      :    -0.000117  f :     0.001245
      f+1     :     0.000012
      f-1     :     0.001283
      f+2     :    -0.000119
      f-2     :     0.000106
      f+3     :    -0.000087
      f-3     :     0.000167
  2 C s       :     0.002277  s :     0.002277
      pz      :     0.055857  p :     0.088188
      px      :     0.004563
      py      :     0.027769
      dz2     :     0.005626  d :     0.010211
      dxz     :     0.000917
      dyz     :     0.001722
      dx2y2   :     0.001562
      dxy     :     0.000384
      f0      :     0.000041  f :     0.000934
      f+1     :     0.000274
      f-1     :     0.000358
      f+2     :     0.000025
      f-2     :    -0.000073
      f+3     :    -0.000018
      f-3     :     0.000327
  3 C s       :     0.000055  s :     0.000055
      pz      :     0.014438  p :     0.015072
      px      :    -0.000328
      py      :     0.000962
      dz2     :     0.003232  d :     0.013323
      dxz     :     0.003405
      dyz     :     0.002196
      dx2y2   :     0.003786
      dxy     :     0.000705
      f0      :     0.000474  f :     0.001618
      f+1     :    -0.000012
      f-1     :     0.000310
      f+2     :     0.000196
      f-2     :     0.000097
      f+3     :     0.000304
      f-3     :     0.000248
  4 C s       :     0.000444  s :     0.000444
      pz      :     0.024699  p :     0.033163
      px      :     0.000987
      py      :     0.007477
      dz2     :     0.005503  d :     0.012188
      dxz     :     0.000685
      dyz     :    -0.000524
      dx2y2   :     0.002569
      dxy     :     0.003955
      f0      :    -0.000009  f :     0.001653
      f+1     :     0.000633
      f-1     :     0.000067
      f+2     :     0.000240
      f-2     :    -0.000018
      f+3     :     0.000258
      f-3     :     0.000481
  5 C s       :     0.003833  s :     0.003833
      pz      :     0.035558  p :     0.125779
      px      :     0.003909
      py      :     0.086312
      dz2     :     0.003267  d :     0.004198
      dxz     :     0.000242
      dyz     :     0.001075
      dx2y2   :    -0.000424
      dxy     :     0.000038
      f0      :    -0.000013  f :     0.000177
      f+1     :     0.000144
      f-1     :     0.000013
      f+2     :    -0.000012
      f-2     :    -0.000130
      f+3     :    -0.000102
      f-3     :     0.000278
  6 C s       :    -0.000197  s :    -0.000197
      pz      :     0.010491  p :     0.009758
      px      :    -0.000142
      py      :    -0.000590
      dz2     :     0.003120  d :     0.014604
      dxz     :     0.001862
      dyz     :     0.000325
      dx2y2   :     0.006409
      dxy     :     0.002889
      f0      :     0.000365  f :     0.001997
      f+1     :     0.000012
      f-1     :     0.000207
      f+2     :     0.000144
      f-2     :    -0.000010
      f+3     :     0.000868
      f-3     :     0.000412
  7 C s       :     0.000581  s :     0.000581
      pz      :     0.024026  p :     0.030119
      px      :     0.001359
      py      :     0.004734
      dz2     :     0.004921  d :     0.008662
      dxz     :     0.000777
      dyz     :     0.000197
      dx2y2   :     0.000629
      dxy     :     0.002137
      f0      :    -0.000023  f :     0.001264
      f+1     :     0.000725
      f-1     :     0.000012
      f+2     :     0.000092
      f-2     :     0.000011
      f+3     :     0.000023
      f-3     :     0.000424
  8 C s       :    -0.001884  s :    -0.001884
      pz      :    -0.006384  p :    -0.012937
      px      :    -0.005943
      py      :    -0.000610
      dz2     :    -0.001702  d :     0.000338
      dxz     :    -0.001241
      dyz     :     0.003411
      dx2y2   :    -0.000494
      dxy     :     0.000363
      f0      :     0.000251  f :     0.019104
      f+1     :    -0.000031
      f-1     :     0.015668
      f+2     :     0.000214
      f-2     :     0.001285
      f+3     :     0.000183
      f-3     :     0.001534
  9 O s       :     0.004719  s :     0.004719
      pz      :     0.160630  p :     0.313818
      px      :     0.021353
      py      :     0.131835
      dz2     :     0.000673  d :     0.001077
      dxz     :    -0.000014
      dyz     :     0.000162
      dx2y2   :     0.000327
      dxy     :    -0.000072
      f0      :    -0.000025  f :    -0.000005
      f+1     :     0.000004
      f-1     :     0.000059
      f+2     :    -0.000051
      f-2     :    -0.000021
      f+3     :     0.000002
      f-3     :     0.000028
 10 O s       :    -0.000030  s :    -0.000030
      pz      :     0.003066  p :     0.025992
      px      :    -0.003756
      py      :     0.026682
      dz2     :    -0.000086  d :    -0.000485
      dxz     :    -0.000192
      dyz     :    -0.000160
      dx2y2   :    -0.000038
      dxy     :    -0.000010
      f0      :    -0.000010  f :    -0.000041
      f+1     :    -0.000017
      f-1     :    -0.000008
      f+2     :    -0.000003
      f-2     :    -0.000001
      f+3     :    -0.000001
      f-3     :    -0.000000
 11 H s       :    -0.000138  s :    -0.000138
      pz      :    -0.000028  p :    -0.000120
      px      :    -0.000075
      py      :    -0.000018
 12 H s       :     0.006823  s :     0.006823
      pz      :    -0.000100  p :    -0.000303
      px      :    -0.000113
      py      :    -0.000090
 13 H s       :     0.006897  s :     0.006897
      pz      :    -0.000090  p :    -0.000292
      px      :    -0.000179
      py      :    -0.000023
 14 H s       :    -0.000509  s :    -0.000509
      pz      :     0.000318  p :     0.000417
      px      :     0.000080
      py      :     0.000020
 15 H s       :    -0.000889  s :    -0.000889
      pz      :     0.000461  p :     0.000776
      px      :     0.000114
      py      :     0.000201
 16 H s       :    -0.000255  s :    -0.000255
      pz      :     0.000146  p :     0.000210
      px      :     0.000043
      py      :     0.000021
 17 H s       :    -0.000924  s :    -0.000924
      pz      :     0.000481  p :     0.000673
      px      :     0.000104
      py      :     0.000088


                      *****************************
                      * MAYER POPULATION ANALYSIS *
                      *****************************

  NA   - Mulliken gross atomic population
  ZA   - Total nuclear charge
  QA   - Mulliken gross atomic charge
  VA   - Mayer's total valence
  BVA  - Mayer's bonded valence
  FA   - Mayer's free valence

  ATOM       NA         ZA         QA         VA         BVA        FA
  0 C      6.4164     6.0000    -0.4164     3.8921     3.8919     0.0002
  1 S     15.9144    16.0000     0.0856     2.7465     2.6731     0.0735
  2 C      5.8152     6.0000     0.1848     3.8226     3.8068     0.0158
  3 C      6.1971     6.0000    -0.1971     3.8853     3.8841     0.0012
  4 C      6.2131     6.0000    -0.2131     3.9914     3.9887     0.0028
  5 C      5.8363     6.0000     0.1637     3.5743     3.5444     0.0299
  6 C      6.2156     6.0000    -0.2156     3.9968     3.9958     0.0010
  7 C      6.1593     6.0000    -0.1593     3.8780     3.8759     0.0021
  8 C      5.7463     6.0000     0.2537     4.5598     4.5589     0.0009
  9 O      8.3670     8.0000    -0.3670     2.1385     2.0265     0.1121
 10 O      8.4341     8.0000    -0.4341     2.0572     2.0559     0.0012
 11 H      0.7963     1.0000     0.2037     0.9526     0.9526     0.0000
 12 H      0.8047     1.0000     0.1953     0.9553     0.9552     0.0001
 13 H      0.8051     1.0000     0.1949     0.9551     0.9550     0.0001
 14 H      0.8138     1.0000     0.1862     0.9590     0.9590     0.0000
 15 H      0.8204     1.0000     0.1796     0.9591     0.9591     0.0000
 16 H      0.8214     1.0000     0.1786     0.9578     0.9578     0.0000
 17 H      0.8237     1.0000     0.1763     0.9616     0.9616     0.0000

  Mayer bond orders larger than 0.100000
B(  0-C ,  1-S ) :   1.0478 B(  0-C , 11-H ) :   0.9298 B(  0-C , 12-H ) :   0.9380 
B(  0-C , 13-H ) :   0.9368 B(  1-S ,  2-C ) :   1.3016 B(  2-C ,  3-C ) :   1.2154 
B(  2-C ,  7-C ) :   1.1885 B(  3-C ,  4-C ) :   1.5215 B(  3-C , 14-H ) :   0.9513 
B(  4-C ,  5-C ) :   1.2551 B(  4-C , 15-H ) :   0.9625 B(  5-C ,  6-C ) :   1.2483 
B(  5-C ,  8-C ) :   0.8669 B(  5-C ,  9-O ) :   0.1013 B(  6-C ,  7-C ) :   1.5500 
B(  6-C , 16-H ) :   0.9702 B(  7-C , 17-H ) :   0.9629 B(  8-C ,  9-O ) :   1.6165 
B(  8-C , 10-O ) :   1.9763 

-------
TIMINGS
-------

Total SCF time: 0 days 0 hours 3 min 35 sec 

Total time                  ....     215.697 sec
Sum of individual times     ....     193.766 sec  ( 89.8%)

Fock matrix formation       ....     111.995 sec  ( 51.9%)
  Split-RI-J                ....      18.523 sec  ( 16.5% of F)
  Chain of spheres X        ....      47.133 sec  ( 42.1% of F)
  XC integration            ....      12.191 sec  ( 10.9% of F)
    Basis function eval.    ....       1.090 sec  (  8.9% of XC)
    Density eval.           ....       2.571 sec  ( 21.1% of XC)
    XC-Functional eval.     ....       0.266 sec  (  2.2% of XC)
    XC-Potential eval.      ....       2.113 sec  ( 17.3% of XC)
Diagonalization             ....      31.675 sec  ( 14.7%)
Density matrix formation    ....       1.407 sec  (  0.7%)
Population analysis         ....       3.363 sec  (  1.6%)
Initial guess               ....       0.277 sec  (  0.1%)
Orbital Transformation      ....       0.000 sec  (  0.0%)
Orbital Orthonormalization  ....       0.157 sec  (  0.1%)
DIIS solution               ....      35.663 sec  ( 16.5%)
Grid generation             ....       9.385 sec  (  4.4%)

Maximum memory used throughout the entire SCF-calculation: 95.1 MB


-------------------------------------------------------------------------------
                          DFT DISPERSION CORRECTION                            
                                                                               
                              DFTD3 V3.1  Rev 1                                
                          USING Becke-Johnson damping                          
-------------------------------------------------------------------------------
The PBE0 functional is recognized
Active option DFTDOPT                   ...         4   

molecular C6(AA) [au] = 4868.571129 


            DFT-D V3
 parameters
 s6 scaling factor         :     1.0000 
 a1 scaling factor         :     0.4145 
 s8 scaling factor         :     1.2177 
 a2 scaling factor         :     4.8593 
 ad hoc parameters k1-k3   :    16.0000     1.3333    -4.0000 

 Edisp/kcal,au: -11.851866226594  -0.018887149043 
 E6   /kcal   :  -7.210810194 
 E8   /kcal   :  -4.641056032 
 % E8         :  39.158862776 

-------------------------   ----------------
Dispersion correction           -0.018887149
-------------------------   ----------------


-------------------------   --------------------
FINAL SINGLE POINT ENERGY      -857.218077062559
-------------------------   --------------------

                                *** OPTIMIZATION RUN DONE ***

                            ***************************************
                            *     ORCA property calculations      *
                            ***************************************

                                    ---------------------
                                    Active property flags
                                    ---------------------
   (+) Dipole Moment


------------------------------------------------------------------------------
                       ORCA ELECTRIC PROPERTIES CALCULATION
------------------------------------------------------------------------------

Dipole Moment Calculation                       ... on
Quadrupole Moment Calculation                   ... off
Polarizability Calculation                      ... off
GBWName                                         ... /burg/berkelbach/users/eav2136/projects/peroxide_dissociation/04_solvated_radical/dmso/dmso_radical_opt.gbw
Electron density                                ... /burg/berkelbach/users/eav2136/projects/peroxide_dissociation/04_solvated_radical/dmso/dmso_radical_opt.scfp
The origin for moment calculation is the CENTER OF MASS  = ( 1.625284,  6.630156  2.168002)

-------------
DIPOLE MOMENT
-------------
                                X             Y             Z
Electronic contribution:      2.90331      -3.45745      -3.21484
Nuclear contribution   :     -3.08289       8.21611       6.81227
                        -----------------------------------------
Total Dipole Moment    :     -0.17958       4.75866       3.59743
                        -----------------------------------------
Magnitude (a.u.)       :      5.96813
Magnitude (Debye)      :     15.16978



--------------------
Rotational spectrum 
--------------------
 
Rotational constants in cm-1:     0.103162     0.015168     0.014133 
Rotational constants in MHz :  3092.721444   454.720314   423.693762 

 Dipole components along the rotational axes: 
x,y,z [a.u.] :     5.947949     0.482879     0.085543 
x,y,z [Debye]:    15.118485     1.227382     0.217433 

 

Timings for individual modules:

Sum of individual times         ...     9603.675 sec (= 160.061 min)
GTO integral calculation        ...      135.722 sec (=   2.262 min)   1.4 %
SCF iterations                  ...     8937.099 sec (= 148.952 min)  93.1 %
SCF Gradient evaluation         ...      528.560 sec (=   8.809 min)   5.5 %
Geometry relaxation             ...        2.294 sec (=   0.038 min)   0.0 %
                             ****ORCA TERMINATED NORMALLY****
TOTAL RUN TIME: 0 days 2 hours 43 minutes 21 seconds 67 msec
