Job execution start: Fri Apr 22 11:29:04 EDT 2022
Shared library path: /cm/shared/apps/cuda11.0/toolkit/11.0.3/compat:/burg/berkelbach/users/eav2136/builds/orca/5.0.3/orca:/cm/shared/apps/ucx/1.8.1/lib64:/cm/local/apps/cuda/libs/current/lib64:/cm/shared/apps/cuda11.0/toolkit/11.0.3/targets/x86_64-linux/lib:/cm/shared/apps/cuda11.0/visual-tools/11.0.3/libnvvp:/burg/opt/openmpi-4.1.1_ucx_cuda_11.0.3_support/lib:/cm/shared/apps/slurm/current/lib64/slurm:/cm/shared/apps/slurm/current/lib64
Slurm Job ID is: 1845560
Slurm Job name is: wb97x-d-peroxide_opt
g066

                                 *****************
                                 * O   R   C   A *
                                 *****************

                                            #,                                       
                                            ###                                      
                                            ####                                     
                                            #####                                    
                                            ######                                   
                                           ########,                                 
                                     ,,################,,,,,                         
                               ,,#################################,,                 
                          ,,##########################################,,             
                       ,#########################################, ''#####,          
                    ,#############################################,,   '####,        
                  ,##################################################,,,,####,       
                ,###########''''           ''''###############################       
              ,#####''   ,,,,##########,,,,          '''####'''          '####       
            ,##' ,,,,###########################,,,                        '##       
           ' ,,###''''                  '''############,,,                           
         ,,##''                                '''############,,,,        ,,,,,,###''
      ,#''                                            '''#######################'''  
     '                                                          ''''####''''         
             ,#######,   #######,   ,#######,      ##                                
            ,#'     '#,  ##    ##  ,#'     '#,    #''#        ######   ,####,        
            ##       ##  ##   ,#'  ##            #'  '#       #        #'  '#        
            ##       ##  #######   ##           ,######,      #####,   #    #        
            '#,     ,#'  ##    ##  '#,     ,#' ,#      #,         ##   #,  ,#        
             '#######'   ##     ##  '#######'  #'      '#     #####' # '####'        



                  #######################################################
                  #                        -***-                        #
                  #          Department of theory and spectroscopy      #
                  #    Directorship and core code : Frank Neese         #
                  #        Max Planck Institute fuer Kohlenforschung    #
                  #                Kaiser Wilhelm Platz 1               #
                  #                 D-45470 Muelheim/Ruhr               #
                  #                      Germany                        #
                  #                                                     #
                  #                  All rights reserved                #
                  #                        -***-                        #
                  #######################################################


                         Program Version 5.0.3 -  RELEASE  -


 With contributions from (in alphabetic order):
   Daniel Aravena         : Magnetic Suceptibility
   Michael Atanasov       : Ab Initio Ligand Field Theory (pilot matlab implementation)
   Alexander A. Auer      : GIAO ZORA, VPT2 properties, NMR spectrum
   Ute Becker             : Parallelization
   Giovanni Bistoni       : ED, misc. LED, open-shell LED, HFLD
   Martin Brehm           : Molecular dynamics
   Dmytro Bykov           : SCF Hessian
   Vijay G. Chilkuri      : MRCI spin determinant printing, contributions to CSF-ICE
   Dipayan Datta          : RHF DLPNO-CCSD density
   Achintya Kumar Dutta   : EOM-CC, STEOM-CC
   Dmitry Ganyushin       : Spin-Orbit,Spin-Spin,Magnetic field MRCI
   Miquel Garcia          : C-PCM and meta-GGA Hessian, CC/C-PCM, Gaussian charge scheme
   Yang Guo               : DLPNO-NEVPT2, F12-NEVPT2, CIM, IAO-localization
   Andreas Hansen         : Spin unrestricted coupled pair/coupled cluster methods
   Benjamin Helmich-Paris : MC-RPA, TRAH-SCF, COSX integrals
   Lee Huntington         : MR-EOM, pCC
   Robert Izsak           : Overlap fitted RIJCOSX, COSX-SCS-MP3, EOM
   Marcus Kettner         : VPT2
   Christian Kollmar      : KDIIS, OOCD, Brueckner-CCSD(T), CCSD density, CASPT2, CASPT2-K
   Simone Kossmann        : Meta GGA functionals, TD-DFT gradient, OOMP2, MP2 Hessian
   Martin Krupicka        : Initial AUTO-CI
   Lucas Lang             : DCDCAS
   Marvin Lechner         : AUTO-CI (C++ implementation), FIC-MRCC
   Dagmar Lenk            : GEPOL surface, SMD
   Dimitrios Liakos       : Extrapolation schemes; Compound Job, initial MDCI parallelization
   Dimitrios Manganas     : Further ROCIS development; embedding schemes
   Dimitrios Pantazis     : SARC Basis sets
   Anastasios Papadopoulos: AUTO-CI, single reference methods and gradients
   Taras Petrenko         : DFT Hessian,TD-DFT gradient, ASA, ECA, R-Raman, ABS, FL, XAS/XES, NRVS
   Peter Pinski           : DLPNO-MP2, DLPNO-MP2 Gradient
   Christoph Reimann      : Effective Core Potentials
   Marius Retegan         : Local ZFS, SOC
   Christoph Riplinger    : Optimizer, TS searches, QM/MM, DLPNO-CCSD(T), (RO)-DLPNO pert. Triples
   Tobias Risthaus        : Range-separated hybrids, TD-DFT gradient, RPA, STAB
   Michael Roemelt        : Original ROCIS implementation
   Masaaki Saitow         : Open-shell DLPNO-CCSD energy and density
   Barbara Sandhoefer     : DKH picture change effects
   Avijit Sen             : IP-ROCIS
   Kantharuban Sivalingam : CASSCF convergence, NEVPT2, FIC-MRCI
   Bernardo de Souza      : ESD, SOC TD-DFT
   Georgi Stoychev        : AutoAux, RI-MP2 NMR, DLPNO-MP2 response
   Willem Van den Heuvel  : Paramagnetic NMR
   Boris Wezisla          : Elementary symmetry handling
   Frank Wennmohs         : Technical directorship


 We gratefully acknowledge several colleagues who have allowed us to
 interface, adapt or use parts of their codes:
   Stefan Grimme, W. Hujo, H. Kruse, P. Pracht,  : VdW corrections, initial TS optimization,
                  C. Bannwarth, S. Ehlert          DFT functionals, gCP, sTDA/sTD-DF
   Ed Valeev, F. Pavosevic, A. Kumar             : LibInt (2-el integral package), F12 methods
   Garnet Chan, S. Sharma, J. Yang, R. Olivares  : DMRG
   Ulf Ekstrom                                   : XCFun DFT Library
   Mihaly Kallay                                 : mrcc  (arbitrary order and MRCC methods)
   Jiri Pittner, Ondrej Demel                    : Mk-CCSD
   Frank Weinhold                                : gennbo (NPA and NBO analysis)
   Christopher J. Cramer and Donald G. Truhlar   : smd solvation model
   Lars Goerigk                                  : TD-DFT with DH, B97 family of functionals
   V. Asgeirsson, H. Jonsson                     : NEB implementation
   FAccTs GmbH                                   : IRC, NEB, NEB-TS, DLPNO-Multilevel, CI-OPT
                                                   MM, QMMM, 2- and 3-layer-ONIOM, Crystal-QMMM,
                                                   LR-CPCM, SF, NACMEs, symmetry and pop. for TD-DFT,
                                                   nearIR, NL-DFT gradient (VV10), updates on ESD,
                                                   ML-optimized integration grids
   S Lehtola, MJT Oliveira, MAL Marques          : LibXC Library
   Liviu Ungur et al                             : ANISO software


 Your calculation uses the libint2 library for the computation of 2-el integrals
 For citations please refer to: http://libint.valeyev.net

 Your ORCA version has been built with support for libXC version: 5.1.0
 For citations please refer to: https://tddft.org/programs/libxc/

 This ORCA versions uses:
   CBLAS   interface :  Fast vector & matrix operations
   LAPACKE interface :  Fast linear algebra routines
   SCALAPACK package :  Parallel linear algebra routines
   Shared memory     :  Shared parallel matrices
   BLAS/LAPACK       :  OpenBLAS 0.3.15  USE64BITINT DYNAMIC_ARCH NO_AFFINITY SkylakeX SINGLE_THREADED
        Core in use  :  SkylakeX
   Copyright (c) 2011-2014, The OpenBLAS Project


Your calculation utilizes the atom-pairwise dispersion correction
with the zero-damping scheme (D30)
Cite in your paper:
S.Grimme, J.Antony, S.Ehrlich and H.Krieg, J.Chem.Phys., 132, (2010), 154104 
   

XCFun DFT library Copyright 2009-2010 Ulf Ekstrom and contributors.
See http://admol.org/xcfun for more information.
This is free software; see the source code for copying conditions.
There is ABSOLUTELY NO WARRANTY; not even for MERCHANTABILITY or FITNESS FOR A PARTICULAR PURPOSE.
For details see the documentation.
Scientific users of this library should cite U. Ekstrom, L. Visscher, R. Bast, A. J. Thorvaldsen and K. Ruud;
J.Chem.Theor.Comp. 2010, DOI: 10.1021/ct100117s
XCFun Version 0.99 

================================================================================

----- Orbital basis set information -----
Your calculation utilizes the basis: def2-TZVP
   F. Weigend and R. Ahlrichs, Phys. Chem. Chem. Phys. 7, 3297 (2005).

----- AuxJ basis set information -----
Your calculation utilizes the auxiliary basis: def2/J
   F. Weigend, Phys. Chem. Chem. Phys. 8, 1057 (2006).

================================================================================
                                        WARNINGS
                       Please study these warnings very carefully!
================================================================================


WARNING: Geometry Optimization
  ===> : Switching off AutoStart
         For restart on a previous wavefunction, please use MOREAD

INFO   : the flag for use of the SHARK integral package has been found!

================================================================================
                                       INPUT FILE
================================================================================
NAME = /burg/berkelbach/users/eav2136/projects/peroxide_dissociation/05_range_separated_functional/wb97x-d-peroxide/wb97x-d-peroxide_opt.inp
|  1> ! UKS wB97X-D3 def2-TZVP TIGHTSCF Opt PAL8
|  2> %maxcore 5000
|  3> * xyz 0 1
|  4>  C -0.07425707479814 6.45007760366319 3.54636897867849
|  5>  S 1.48979584793712 6.08048225687873 2.75598260255209
|  6>  C 1.14936654141856 4.63662227087222 1.83369205968326
|  7>  C -0.09136557109480 4.00305286554088 1.79338352444578
|  8>  C -0.25826928718407 2.84269542505768 1.05936282240646
|  9>  C 0.80050967676942 2.30271389692801 0.33923873907232
| 10>  C 2.02875697338567 2.96040825022008 0.34201900047512
| 11>  C 2.20764771123846 4.10330343094754 1.09121055149825
| 12>  C 0.66254428710301 1.09941809961861 -0.50690159852297
| 13>  O 0.00000000000000 0.00000000000000 0.00000000000000
| 14>  O 1.06713866538631 0.98717129960580 -1.62357736506780
| 15>  O 0.00000000000000 0.00000000000000 1.41527284498687
| 16>  C -1.27388770944479 0.00000000000000 1.91590645535523
| 17>  C -1.22211457253867 0.06642777988277 3.38831477989974
| 18>  O -2.25742922897412 -0.02585779042736 1.23875652957256
| 19>  C -2.41543940252313 -0.12289611375011 4.08595252694906
| 20>  C -2.44195923478874 -0.03437680070658 5.45887710053507
| 21>  C -1.27275068522395 0.25496212808386 6.17298493884884
| 22>  C -0.08177795586127 0.45060655108151 5.47518008098465
| 23>  C -0.05890441770979 0.35440376081578 4.09544628781756
| 24>  S -1.42666733932306 0.34986111841343 7.90788531117200
| 25>  C 0.24316058065577 0.68495422113854 8.46194522255982
| 26>  H 0.10416325535368 7.34607684664392 4.14087383255362
| 27>  H -0.38882275224257 5.64387294862163 4.21002028523424
| 28>  H -0.85323854703301 6.66443357654391 2.81385647784552
| 29>  H -0.93700004363157 4.40513362395569 2.33421606140266
| 30>  H -1.23507439683237 2.37497021944690 1.02749021968162
| 31>  H 2.84544686618639 2.55882587909200 -0.24576673820719
| 32>  H 3.17295340310622 4.59670965109571 1.10248346369500
| 33>  H -3.31769085302541 -0.33900022625314 3.52707230389961
| 34>  H -3.37188538809726 -0.18808364875198 5.99464715790180
| 35>  H 0.83479761044422 0.68252071425859 5.99988733430662
| 36>  H 0.87046926144621 0.51883617942438 3.56602510045047
| 37>  H 0.18454114424639 0.73729393679500 9.54909076814075
| 38>  H 0.60864534290486 1.64029462399245 8.08374213903351
| 39>  H 0.92507514742305 -0.11949528816653 8.18458994466104
| 40> *
| 41> 
| 42>                          ****END OF INPUT****
================================================================================

                       *****************************
                       * Geometry Optimization Run *
                       *****************************

Geometry optimization settings:
Update method            Update   .... BFGS
Choice of coordinates    CoordSys .... Z-matrix Internals
Initial Hessian          InHess   .... Almoef's Model

Convergence Tolerances:
Energy Change            TolE     ....  5.0000e-06 Eh
Max. Gradient            TolMAXG  ....  3.0000e-04 Eh/bohr
RMS Gradient             TolRMSG  ....  1.0000e-04 Eh/bohr
Max. Displacement        TolMAXD  ....  4.0000e-03 bohr
RMS Displacement         TolRMSD  ....  2.0000e-03 bohr
Strict Convergence                ....  False
------------------------------------------------------------------------------
                        ORCA OPTIMIZATION COORDINATE SETUP
------------------------------------------------------------------------------

The optimization will be done in new redundant internal coordinates
Making redundant internal coordinates   ...  (new redundants) done
Evaluating the initial hessian          ...  (Almloef) done
Evaluating the coordinates              ...  done
Calculating the B-matrix                .... done
Calculating the G-matrix                .... done
Diagonalizing the G-matrix              .... done
Small eigenvalue found = 6.813e-04
Small eigenvalue found = 1.847e-03
Small eigenvalue found = 4.132e-03
Small eigenvalue found = 1.197e-02
Small eigenvalue found = 1.299e-02
Small eigenvalue found = 2.647e-02
The first mode is                       ....   64
The number of degrees of freedom        ....  102

    -----------------------------------------------------------------
                    Redundant Internal Coordinates


    -----------------------------------------------------------------
         Definition                    Initial Value    Approx d2E/dq
    -----------------------------------------------------------------
      1. B(S   1,C   0)                  1.7910         0.386175   
      2. B(C   2,S   1)                  1.7468         0.454240   
      3. B(C   3,C   2)                  1.3937         0.616320   
      4. B(C   4,C   3)                  1.3831         0.640745   
      5. B(C   5,C   4)                  1.3897         0.625563   
      6. B(C   6,C   5)                  1.3933         0.617369   
      7. B(C   7,C   2)                  1.3985         0.605696   
      8. B(C   7,C   6)                  1.3782         0.652421   
      9. B(C   8,C   5)                  1.4775         0.453096   
     10. B(O   9,C   8)                  1.3801         0.580356   
     11. B(O  10,C   8)                  1.1930         1.153901   
     12. B(O  11,O   9)                  1.4153         0.456763   
     13. B(C  12,O  11)                  1.3687         0.605075   
     14. B(C  13,C  12)                  1.4748         0.457532   
     15. B(O  14,C  12)                  1.1944         1.148067   
     16. B(C  15,C  13)                  1.3952         0.612988   
     17. B(C  16,C  15)                  1.3760         0.657696   
     18. B(C  17,C  16)                  1.4003         0.601695   
     19. B(C  18,C  17)                  1.3941         0.615367   
     20. B(C  19,C  18)                  1.3833         0.640430   
     21. B(C  19,C  13)                  1.3914         0.621567   
     22. B(S  20,C  17)                  1.7443         0.458402   
     23. B(C  21,S  20)                  1.7910         0.386167   
     24. B(H  22,C   0)                  1.0900         0.360109   
     25. B(H  23,C   0)                  1.0906         0.359342   
     26. B(H  24,C   0)                  1.0906         0.359351   
     27. B(H  25,C   3)                  1.0813         0.371759   
     28. B(H  26,C   4)                  1.0835         0.368828   
     29. B(H  27,C   6)                  1.0834         0.368946   
     30. B(H  28,C   7)                  1.0842         0.367916   
     31. B(H  29,C  15)                  1.0831         0.369344   
     32. B(H  30,C  16)                  1.0842         0.367887   
     33. B(H  31,C  18)                  1.0813         0.371793   
     34. B(H  32,C  19)                  1.0822         0.370628   
     35. B(H  33,C  21)                  1.0900         0.360124   
     36. B(H  34,C  21)                  1.0905         0.359378   
     37. B(H  35,C  21)                  1.0904         0.359511   
     38. A(H  22,C   0,H  23)          108.8436         0.290744   
     39. A(H  22,C   0,H  24)          108.7656         0.290746   
     40. A(S   1,C   0,H  24)          111.5879         0.342618   
     41. A(S   1,C   0,H  23)          111.5859         0.342616   
     42. A(H  23,C   0,H  24)          110.3658         0.290648   
     43. A(S   1,C   0,H  22)          105.5091         0.342738   
     44. A(C   0,S   1,C   2)          103.4970         0.419917   
     45. A(C   3,C   2,C   7)          119.0102         0.431786   
     46. A(S   1,C   2,C   3)          124.3692         0.432719   
     47. A(S   1,C   2,C   7)          116.6202         0.431369   
     48. A(C   2,C   3,C   4)          120.2744         0.436178   
     49. A(C   4,C   3,H  25)          118.8821         0.356807   
     50. A(C   2,C   3,H  25)          120.8433         0.354461   
     51. A(C   5,C   4,H  26)          120.2581         0.354880   
     52. A(C   3,C   4,H  26)          119.1145         0.356327   
     53. A(C   3,C   4,C   5)          120.6005         0.437350   
     54. A(C   4,C   5,C   6)          119.1567         0.434432   
     55. A(C   4,C   5,C   8)          122.8259         0.411072   
     56. A(C   6,C   5,C   8)          117.8994         0.410112   
     57. A(C   7,C   6,H  27)          120.2952         0.357442   
     58. A(C   5,C   6,H  27)          119.2412         0.354107   
     59. A(C   5,C   6,C   7)          120.4618         0.437734   
     60. A(C   6,C   7,H  28)          119.9087         0.357272   
     61. A(C   2,C   7,H  28)          119.6508         0.352797   
     62. A(C   2,C   7,C   6)          120.4398         0.436231   
     63. A(O   9,C   8,O  10)          115.5727         0.473849   
     64. A(C   5,C   8,O  10)          125.5219         0.455899   
     65. A(C   5,C   8,O   9)          118.8999         0.403044   
     66. A(C   8,O   9,O  11)          111.5490         0.398410   
     67. A(O   9,O  11,C  12)          111.4547         0.401345   
     68. A(C  13,C  12,O  14)          126.5770         0.456288   
     69. A(O  11,C  12,O  14)          123.9896         0.477054   
     70. A(O  11,C  12,C  13)          109.4203         0.406723   
     71. A(C  12,C  13,C  19)          123.0966         0.411315   
     72. A(C  15,C  13,C  19)          119.2748         0.433376   
     73. A(C  12,C  13,C  15)          117.5858         0.410303   
     74. A(C  16,C  15,H  29)          120.7715         0.357997   
     75. A(C  13,C  15,H  29)          118.7871         0.353745   
     76. A(C  13,C  15,C  16)          120.4413         0.437808   
     77. A(C  17,C  16,H  30)          119.5691         0.352397   
     78. A(C  15,C  16,H  30)          120.0309         0.357757   
     79. A(C  15,C  16,C  17)          120.3999         0.436343   
     80. A(C  16,C  17,S  20)          116.4104         0.431562   
     81. A(C  18,C  17,S  20)          124.4423         0.433309   
     82. A(C  16,C  17,C  18)          119.1469         0.431152   
     83. A(C  17,C  18,C  19)          120.2393         0.436018   
     84. A(C  19,C  18,H  31)          119.0068         0.356782   
     85. A(C  17,C  18,H  31)          120.7535         0.354374   
     86. A(C  13,C  19,C  18)          120.4962         0.436806   
     87. A(C  18,C  19,H  32)          119.4465         0.356592   
     88. A(C  13,C  19,H  32)          120.0518         0.354788   
     89. A(C  17,S  20,C  21)          103.6272         0.420599   
     90. A(H  34,C  21,H  35)          110.3939         0.290673   
     91. A(H  33,C  21,H  35)          108.8290         0.290768   
     92. A(S  20,C  21,H  35)          111.4899         0.342642   
     93. A(H  33,C  21,H  34)          108.7753         0.290751   
     94. A(S  20,C  21,H  34)          111.6593         0.342620   
     95. A(S  20,C  21,H  33)          105.5095         0.342739   
     96. D(C   2,S   1,C   0,H  22)    179.5234         0.003898   
     97. D(C   2,S   1,C   0,H  23)     61.4721         0.003898   
     98. D(C   2,S   1,C   0,H  24)    -62.5176         0.003898   
     99. D(C   3,C   2,S   1,C   0)      0.0768         0.004531   
    100. D(C   7,C   2,S   1,C   0)    179.8441         0.004531   
    101. D(C   4,C   3,C   2,C   7)      1.8479         0.026266   
    102. D(C   4,C   3,C   2,S   1)   -178.3900         0.026266   
    103. D(H  25,C   3,C   2,C   7)   -178.3097         0.026266   
    104. D(H  25,C   3,C   2,S   1)      1.4524         0.026266   
    105. D(H  26,C   4,C   3,H  25)      1.1825         0.028529   
    106. D(H  26,C   4,C   3,C   2)   -178.9720         0.028529   
    107. D(C   5,C   4,C   3,H  25)    179.3028         0.028529   
    108. D(C   5,C   4,C   3,C   2)     -0.8517         0.028529   
    109. D(C   6,C   5,C   4,H  26)    176.7603         0.027109   
    110. D(C   6,C   5,C   4,C   3)     -1.3385         0.027109   
    111. D(C   8,C   5,C   4,C   3)   -177.3042         0.027109   
    112. D(C   8,C   5,C   4,H  26)      0.7946         0.027109   
    113. D(H  27,C   6,C   5,C   8)     -1.7852         0.026361   
    114. D(H  27,C   6,C   5,C   4)   -177.9495         0.026361   
    115. D(C   7,C   6,C   5,C   8)    178.6982         0.026361   
    116. D(C   7,C   6,C   5,C   4)      2.5338         0.026361   
    117. D(H  28,C   7,C   6,H  27)     -0.7379         0.029652   
    118. D(H  28,C   7,C   6,C   5)    178.7736         0.029652   
    119. D(C   2,C   7,C   6,H  27)    178.9472         0.029652   
    120. D(C   2,C   7,C   6,C   5)     -1.5413         0.029652   
    121. D(H  28,C   7,C   2,C   3)    179.0287         0.025317   
    122. D(H  28,C   7,C   2,S   1)     -0.7516         0.025317   
    123. D(C   6,C   7,C   2,C   3)     -0.6572         0.025317   
    124. D(C   6,C   7,C   2,S   1)    179.5625         0.025317   
    125. D(O   9,C   8,C   5,C   6)    137.7156         0.013991   
    126. D(O   9,C   8,C   5,C   4)    -46.2708         0.013991   
    127. D(O  10,C   8,C   5,C   6)    -43.1749         0.013991   
    128. D(O  10,C   8,C   5,C   4)    132.8388         0.013991   
    129. D(O  11,O   9,C   8,O  10)    157.9229         0.024498   
    130. D(O  11,O   9,C   8,C   5)    -22.8806         0.024498   
    131. D(C  12,O  11,O   9,C   8)    121.0745         0.015467   
    132. D(O  14,C  12,O  11,O   9)      1.4962         0.026770   
    133. D(C  13,C  12,O  11,O   9)   -177.2626         0.026770   
    134. D(C  19,C  13,C  12,O  14)   -167.0428         0.014262   
    135. D(C  19,C  13,C  12,O  11)     11.6757         0.014262   
    136. D(C  15,C  13,C  12,O  14)     10.5550         0.014262   
    137. D(C  15,C  13,C  12,O  11)   -170.7265         0.014262   
    138. D(H  29,C  15,C  13,C  19)    179.5255         0.025966   
    139. D(H  29,C  15,C  13,C  12)      1.8326         0.025966   
    140. D(C  16,C  15,C  13,C  19)     -0.4006         0.025966   
    141. D(C  16,C  15,C  13,C  12)   -178.0935         0.025966   
    142. D(H  30,C  16,C  15,H  29)      0.4119         0.030169   
    143. D(H  30,C  16,C  15,C  13)   -179.6635         0.030169   
    144. D(C  17,C  16,C  15,H  29)   -179.5362         0.030169   
    145. D(C  17,C  16,C  15,C  13)      0.3884         0.030169   
    146. D(S  20,C  17,C  16,H  30)     -0.2280         0.024966   
    147. D(S  20,C  17,C  16,C  15)    179.7203         0.024966   
    148. D(C  18,C  17,C  16,H  30)    179.9814         0.024966   
    149. D(C  18,C  17,C  16,C  15)     -0.0703         0.024966   
    150. D(H  31,C  18,C  17,S  20)     -0.2266         0.026180   
    151. D(H  31,C  18,C  17,C  16)    179.5460         0.026180   
    152. D(C  19,C  18,C  17,S  20)    179.9944         0.026180   
    153. D(C  19,C  18,C  17,C  16)     -0.2330         0.026180   
    154. D(C  13,C  19,C  18,C  17)      0.2195         0.028499   
    155. D(H  32,C  19,C  13,C  15)   -179.0463         0.026742   
    156. D(H  32,C  19,C  13,C  12)     -1.4873         0.026742   
    157. D(C  18,C  19,C  13,C  15)      0.0962         0.026742   
    158. D(C  18,C  19,C  13,C  12)    177.6553         0.026742   
    159. D(H  32,C  19,C  18,H  31)     -0.4157         0.028499   
    160. D(H  32,C  19,C  18,C  17)    179.3672         0.028499   
    161. D(C  13,C  19,C  18,H  31)   -179.5634         0.028499   
    162. D(C  21,S  20,C  17,C  18)     -1.6462         0.004589   
    163. D(C  21,S  20,C  17,C  16)    178.5756         0.004589   
    164. D(H  35,C  21,S  20,C  17)    -61.2749         0.003898   
    165. D(H  34,C  21,S  20,C  17)     62.7331         0.003898   
    166. D(H  33,C  21,S  20,C  17)   -179.2586         0.003898   
    -----------------------------------------------------------------

Number of atoms                         .... 36
Number of degrees of freedom            .... 166

         *************************************************************
         *                GEOMETRY OPTIMIZATION CYCLE   1            *
         *************************************************************
---------------------------------
CARTESIAN COORDINATES (ANGSTROEM)
---------------------------------
  C     -0.074257    6.450078    3.546369
  S      1.489796    6.080482    2.755983
  C      1.149367    4.636622    1.833692
  C     -0.091366    4.003053    1.793384
  C     -0.258269    2.842695    1.059363
  C      0.800510    2.302714    0.339239
  C      2.028757    2.960408    0.342019
  C      2.207648    4.103303    1.091211
  C      0.662544    1.099418   -0.506902
  O      0.000000    0.000000    0.000000
  O      1.067139    0.987171   -1.623577
  O      0.000000    0.000000    1.415273
  C     -1.273888    0.000000    1.915906
  C     -1.222115    0.066428    3.388315
  O     -2.257429   -0.025858    1.238757
  C     -2.415439   -0.122896    4.085953
  C     -2.441959   -0.034377    5.458877
  C     -1.272751    0.254962    6.172985
  C     -0.081778    0.450607    5.475180
  C     -0.058904    0.354404    4.095446
  S     -1.426667    0.349861    7.907885
  C      0.243161    0.684954    8.461945
  H      0.104163    7.346077    4.140874
  H     -0.388823    5.643873    4.210020
  H     -0.853239    6.664434    2.813856
  H     -0.937000    4.405134    2.334216
  H     -1.235074    2.374970    1.027490
  H      2.845447    2.558826   -0.245767
  H      3.172953    4.596710    1.102483
  H     -3.317691   -0.339000    3.527072
  H     -3.371885   -0.188084    5.994647
  H      0.834798    0.682521    5.999887
  H      0.870469    0.518836    3.566025
  H      0.184541    0.737294    9.549091
  H      0.608645    1.640295    8.083742
  H      0.925075   -0.119495    8.184590

----------------------------
CARTESIAN COORDINATES (A.U.)
----------------------------
  NO LB      ZA    FRAG     MASS         X           Y           Z
   0 C     6.0000    0    12.011   -0.140326   12.188880    6.701666
   1 S    16.0000    0    32.060    2.815306   11.490446    5.208052
   2 C     6.0000    0    12.011    2.171988    8.761946    3.465176
   3 C     6.0000    0    12.011   -0.172656    7.564674    3.389004
   4 C     6.0000    0    12.011   -0.488058    5.371916    2.001906
   5 C     6.0000    0    12.011    1.512744    4.351499    0.641068
   6 C     6.0000    0    12.011    3.833795    5.594361    0.646322
   7 C     6.0000    0    12.011    4.171850    7.754120    2.062089
   8 C     6.0000    0    12.011    1.252027    2.077599   -0.957905
   9 O     8.0000    0    15.999    0.000000    0.000000    0.000000
  10 O     8.0000    0    15.999    2.016600    1.865483   -3.068117
  11 O     8.0000    0    15.999    0.000000    0.000000    2.674478
  12 C     6.0000    0    12.011   -2.407299    0.000000    3.620538
  13 C     6.0000    0    12.011   -2.309462    0.125530    6.402987
  14 O     8.0000    0    15.999   -4.265923   -0.048864    2.340911
  15 C     6.0000    0    12.011   -4.564519   -0.232240    7.721331
  16 C     6.0000    0    12.011   -4.614634   -0.064963   10.315783
  17 C     6.0000    0    12.011   -2.405150    0.481809   11.665251
  18 C     6.0000    0    12.011   -0.154538    0.851523   10.346591
  19 C     6.0000    0    12.011   -0.111313    0.669726    7.739272
  20 S    16.0000    0    32.060   -2.696011    0.661142   14.943738
  21 C     6.0000    0    12.011    0.459507    1.294376   15.990759
  22 H     1.0000    0     1.008    0.196840   13.882073    7.825117
  23 H     1.0000    0     1.008   -0.734769   10.665374    7.955785
  24 H     1.0000    0     1.008   -1.612387   12.593954    5.317418
  25 H     1.0000    0     1.008   -1.770673    8.324496    4.411029
  26 H     1.0000    0     1.008   -2.333952    4.488043    1.941675
  27 H     1.0000    0     1.008    5.377115    4.835480   -0.464432
  28 H     1.0000    0     1.008    5.996013    8.686522    2.083392
  29 H     1.0000    0     1.008   -6.269527   -0.640618    6.665201
  30 H     1.0000    0     1.008   -6.371940   -0.355427   11.328241
  31 H     1.0000    0     1.008    1.577539    1.289777   11.338144
  32 H     1.0000    0     1.008    1.644949    0.980458    6.738811
  33 H     1.0000    0     1.008    0.348732    1.393284   18.045166
  34 H     1.0000    0     1.008    1.150173    3.099708   15.276059
  35 H     1.0000    0     1.008    1.748139   -0.225813   15.466634

--------------------------------
INTERNAL COORDINATES (ANGSTROEM)
--------------------------------
 C      0   0   0     0.000000000000     0.00000000     0.00000000
 S      1   0   0     1.790969818017     0.00000000     0.00000000
 C      2   1   0     1.746780929995   103.49703222     0.00000000
 C      3   2   1     1.393718459520   124.36918170     0.07682297
 C      4   3   2     1.383138688329   120.27439762   181.60997218
 C      5   4   3     1.389666017657   120.60050203   359.14829865
 C      6   5   4     1.393255545064   119.15672375   358.66151732
 C      7   6   5     1.378223229504   120.46180539     2.53383799
 C      6   5   4     1.477466986255   122.82593719   182.69580816
 O      9   6   5     1.380084896203   118.89987975   313.72924568
 O      9   6   5     1.193004913083   125.52191253   132.83876530
 O     10   9   6     1.415272844987   111.54903739   337.11941713
 C     12  10   9     1.368730765383   111.45466078   121.07450275
 C     13  12  10     1.474815033092   109.42032141   182.73741157
 O     13  12  10     1.194384598005   123.98959865     1.49620750
 C     14  13  12     1.395193933712   117.58575536   189.27346256
 C     16  14  13     1.376030833609   120.44129595   181.90648253
 C     17  16  14     1.400255566970   120.39992501     0.38844050
 C     18  17  16     1.394139305089   119.14686446   359.92970699
 C     19  18  17     1.383272755320   120.23932774   359.76697987
 S     18  17  16     1.744297983907   116.41043178   179.72028820
 C     21  18  17     1.790976006328   103.62720090   178.57561880
 H      1   2   3     1.089992880213   105.50910599   179.52342869
 H      1   2   3     1.090573504139   111.58592171    61.47211732
 H      1   2   3     1.090566449636   111.58785041   297.48242808
 H      4   3   2     1.081326236832   120.84329981     1.45240478
 H      5   4   3     1.083480942612   119.11451180   181.02803207
 H      7   6   5     1.083394137146   119.24119758   182.05045369
 H      8   7   6     1.084154903776   119.90872766   178.77361985
 H     16  14  13     1.083100074365   118.78711222     1.83264212
 H     17  16  14     1.084176184997   120.03093279   180.33653865
 H     19  18  17     1.081301368500   120.75351253   179.54600540
 H     20  19  18     1.082155372130   119.44648422   179.36717552
 H     22  21  18     1.089982165651   105.50954915   180.74135630
 H     22  21  18     1.090546637769   111.65925285    62.73308778
 H     22  21  18     1.090445981958   111.48990618   298.72507539

---------------------------
INTERNAL COORDINATES (A.U.)
---------------------------
 C      0   0   0     0.000000000000     0.00000000     0.00000000
 S      1   0   0     3.384442470171     0.00000000     0.00000000
 C      2   1   0     3.300937573646   103.49703222     0.00000000
 C      3   2   1     2.633746196283   124.36918170     0.07682297
 C      4   3   2     2.613753326172   120.27439762   181.60997218
 C      5   4   3     2.626088190988   120.60050203   359.14829865
 C      6   5   4     2.632871414738   119.15672375   358.66151732
 C      7   6   5     2.604464455171   120.46180539     2.53383799
 C      6   5   4     2.792007975932   122.82593719   182.69580816
 O      9   6   5     2.607982495384   118.89987975   313.72924568
 O      9   6   5     2.254452562149   125.52191253   132.83876530
 O     10   9   6     2.674478081801   111.54903739   337.11941713
 C     12  10   9     2.586526297646   111.45466078   121.07450275
 C     13  12  10     2.786996510733   109.42032141   182.73741157
 O     13  12  10     2.257059788803   123.98959865     1.49620750
 C     14  13  12     2.636534438423   117.58575536   189.27346256
 C     16  14  13     2.600321427352   120.44129595   181.90648253
 C     17  16  14     2.646099539072   120.39992501     0.38844050
 C     18  17  16     2.634541479154   119.14686446   359.92970699
 C     19  18  17     2.614006676069   120.23932774   359.76697987
 S     18  17  16     3.296245485535   116.41043178   179.72028820
 C     21  18  17     3.384454164384   103.62720090   178.57561880
 H      1   2   3     2.059788031526   105.50910599   179.52342869
 H      1   2   3     2.060885251733   111.58592171    61.47211732
 H      1   2   3     2.060871920655   111.58785041   297.48242808
 H      4   3   2     2.043410449036   120.84329981     1.45240478
 H      5   4   3     2.047482252859   119.11451180   181.02803207
 H      7   6   5     2.047318214302   119.24119758   182.05045369
 H      8   7   6     2.048755854885   119.90872766   178.77361985
 H     16  14  13     2.046762516180   118.78711222     1.83264212
 H     17  16  14     2.048796070563   120.03093279   180.33653865
 H     19  18  17     2.043363454698   120.75351253   179.54600540
 H     20  19  18     2.044977287678   119.44648422   179.36717552
 H     22  21  18     2.059767783938   105.50954915   180.74135630
 H     22  21  18     2.060834481653   111.65925285    62.73308778
 H     22  21  18     2.060644269736   111.48990618   298.72507539

---------------------
BASIS SET INFORMATION
---------------------
There are 4 groups of distinct atoms

 Group   1 Type C   : 11s6p2d1f contracted to 5s3p2d1f pattern {62111/411/11/1}
 Group   2 Type S   : 14s9p3d1f contracted to 5s5p2d1f pattern {73211/51111/21/1}
 Group   3 Type O   : 11s6p2d1f contracted to 5s3p2d1f pattern {62111/411/11/1}
 Group   4 Type H   : 5s1p contracted to 3s1p pattern {311/1}

Atom   0C    basis set group =>   1
Atom   1S    basis set group =>   2
Atom   2C    basis set group =>   1
Atom   3C    basis set group =>   1
Atom   4C    basis set group =>   1
Atom   5C    basis set group =>   1
Atom   6C    basis set group =>   1
Atom   7C    basis set group =>   1
Atom   8C    basis set group =>   1
Atom   9O    basis set group =>   3
Atom  10O    basis set group =>   3
Atom  11O    basis set group =>   3
Atom  12C    basis set group =>   1
Atom  13C    basis set group =>   1
Atom  14O    basis set group =>   3
Atom  15C    basis set group =>   1
Atom  16C    basis set group =>   1
Atom  17C    basis set group =>   1
Atom  18C    basis set group =>   1
Atom  19C    basis set group =>   1
Atom  20S    basis set group =>   2
Atom  21C    basis set group =>   1
Atom  22H    basis set group =>   4
Atom  23H    basis set group =>   4
Atom  24H    basis set group =>   4
Atom  25H    basis set group =>   4
Atom  26H    basis set group =>   4
Atom  27H    basis set group =>   4
Atom  28H    basis set group =>   4
Atom  29H    basis set group =>   4
Atom  30H    basis set group =>   4
Atom  31H    basis set group =>   4
Atom  32H    basis set group =>   4
Atom  33H    basis set group =>   4
Atom  34H    basis set group =>   4
Atom  35H    basis set group =>   4
---------------------------------
AUXILIARY/J BASIS SET INFORMATION
---------------------------------
There are 4 groups of distinct atoms

 Group   1 Type C   : 12s5p4d2f1g contracted to 6s4p3d1f1g pattern {711111/2111/211/2/1}
 Group   2 Type S   : 14s5p5d2f1g contracted to 8s4p3d1f1g pattern {71111111/2111/311/2/1}
 Group   3 Type O   : 12s5p4d2f1g contracted to 6s4p3d1f1g pattern {711111/2111/211/2/1}
 Group   4 Type H   : 5s2p1d contracted to 3s1p1d pattern {311/2/1}

Atom   0C    basis set group =>   1
Atom   1S    basis set group =>   2
Atom   2C    basis set group =>   1
Atom   3C    basis set group =>   1
Atom   4C    basis set group =>   1
Atom   5C    basis set group =>   1
Atom   6C    basis set group =>   1
Atom   7C    basis set group =>   1
Atom   8C    basis set group =>   1
Atom   9O    basis set group =>   3
Atom  10O    basis set group =>   3
Atom  11O    basis set group =>   3
Atom  12C    basis set group =>   1
Atom  13C    basis set group =>   1
Atom  14O    basis set group =>   3
Atom  15C    basis set group =>   1
Atom  16C    basis set group =>   1
Atom  17C    basis set group =>   1
Atom  18C    basis set group =>   1
Atom  19C    basis set group =>   1
Atom  20S    basis set group =>   2
Atom  21C    basis set group =>   1
Atom  22H    basis set group =>   4
Atom  23H    basis set group =>   4
Atom  24H    basis set group =>   4
Atom  25H    basis set group =>   4
Atom  26H    basis set group =>   4
Atom  27H    basis set group =>   4
Atom  28H    basis set group =>   4
Atom  29H    basis set group =>   4
Atom  30H    basis set group =>   4
Atom  31H    basis set group =>   4
Atom  32H    basis set group =>   4
Atom  33H    basis set group =>   4
Atom  34H    basis set group =>   4
Atom  35H    basis set group =>   4


           ************************************************************
           *        Program running with 8 parallel MPI-processes     *
           *              working on a common directory               *
           ************************************************************
------------------------------------------------------------------------------
                           ORCA GTO INTEGRAL CALCULATION
                           -- RI-GTO INTEGRALS CHOSEN --
------------------------------------------------------------------------------
------------------------------------------------------------------------------
                   ___                                                        
                  /   \      - P O W E R E D   B Y -                         
                 /     \                                                     
                 |  |  |   _    _      __       _____    __    __             
                 |  |  |  | |  | |    /  \     |  _  \  |  |  /  |          
                  \  \/   | |  | |   /    \    | | | |  |  | /  /          
                 / \  \   | |__| |  /  /\  \   | |_| |  |  |/  /          
                |  |  |   |  __  | /  /__\  \  |    /   |      \           
                |  |  |   | |  | | |   __   |  |    \   |  |\   \          
                \     /   | |  | | |  |  |  |  | |\  \  |  | \   \       
                 \___/    |_|  |_| |__|  |__|  |_| \__\ |__|  \__/        
                                                                              
                      - O R C A' S   B I G   F R I E N D -                    
                                      &                                       
                       - I N T E G R A L  F E E D E R -                       
                                                                              
 v1 FN, 2020, v2 2021                                                         
------------------------------------------------------------------------------


Reading SHARK input file /burg/berkelbach/users/eav2136/projects/peroxide_dissociation/05_range_separated_functional/wb97x-d-peroxide/wb97x-d-peroxide_opt.SHARKINP.tmp ... ok
----------------------
SHARK INTEGRAL PACKAGE
----------------------

Number of atoms                             ...     36
Number of basis functions                   ...    778
Number of shells                            ...    302
Maximum angular momentum                    ...      3
Integral batch strategy                     ... SHARK/LIBINT Hybrid
RI-J (if used) integral strategy            ... SPLIT-RIJ (Revised 2003 algorithm where possible)
Printlevel                                  ...      1
Contraction scheme used                     ... SEGMENTED contraction
Coulomb Range Separation                    ... NOT USED
Exchange Range Separation                   ... Long Range
   Mu parameter                             ...  0.250000
   Scaling (regular/separated)              ...  0.195728  0.804272
Finite Nucleus Model                        ... NOT USED
Auxiliary Coulomb fitting basis             ... AVAILABLE
   # of basis functions in Aux-J            ...   1236
   # of shells in Aux-J                     ...    404
   Maximum angular momentum in Aux-J        ...      4
Auxiliary J/K fitting basis                 ... NOT available
Auxiliary Correlation fitting basis         ... NOT available
Auxiliary 'external' fitting basis          ... NOT available
Integral threshold                          ...     2.500000e-11
Primitive cut-off                           ...     2.500000e-12
Primitive pair pre-selection threshold      ...     2.500000e-12

Calculating pre-screening integrals         ... done (  0.2 sec) Dimension = 302
Organizing shell pair data                  ... done (  1.0 sec)
Shell pair information
Total number of shell pairs                 ...     45753
Shell pairs after pre-screening             ...     30707
Total number of primitive shell pairs       ...    145545
Primitive shell pairs kept                  ...     63502
          la=0 lb=0:   7523 shell pairs
          la=1 lb=0:   8937 shell pairs
          la=1 lb=1:   2674 shell pairs
          la=2 lb=0:   4331 shell pairs
          la=2 lb=1:   2602 shell pairs
          la=2 lb=2:    662 shell pairs
          la=3 lb=0:   2019 shell pairs
          la=3 lb=1:   1229 shell pairs
          la=3 lb=2:    589 shell pairs
          la=3 lb=3:    141 shell pairs

Calculating one electron integrals          ... done (  0.5 sec)
Calculating RI/J V-Matrix + Cholesky decomp.... done (  4.5 sec)
Calculating Nuclear repulsion               ... done (  0.0 sec) ENN=   1970.142246923818 Eh

SHARK setup successfully completed in   8.4 seconds

Maximum memory used throughout the entire GTOINT-calculation: 49.0 MB


           ************************************************************
           *        Program running with 8 parallel MPI-processes     *
           *              working on a common directory               *
           ************************************************************
-------------------------------------------------------------------------------
                                 ORCA SCF
-------------------------------------------------------------------------------

------------
SCF SETTINGS
------------
Hamiltonian:
 Density Functional     Method          .... DFT(GTOs)
 Exchange Functional    Exchange        .... WB97X-D3
 Correlation Functional Correlation     .... WB97X-D3
 Gradients option       PostSCFGGA      .... off
 Hybrid DFT is turned on
   Fraction HF Exchange ScalHFX         ....  0.195728
   Scaling of DF-GGA-X  ScalDFX         ....  0.000000
   Scaling of DF-GGA-C  ScalDFC         ....  1.000000
   Scaling of DF-LDA-C  ScalLDAC        ....  1.000000
   Perturbative correction              ....  0.000000
   Density functional embedding theory  .... OFF
 Long-range corrected/Screened/Range-Separated Hybrid DFT is turned on
   Amount of maximum screened exact exchange              ....  0.804272
   Range separation parameter mu (erf(mu*r12)/r12)        ....  0.250000
 RI-approximation to the Coulomb term is turned on
   Number of AuxJ basis functions       .... 1236
   RIJ-COSX (HFX calculated with COS-X)).... on


General Settings:
 Integral files         IntName         .... /burg/berkelbach/users/eav2136/projects/peroxide_dissociation/05_range_separated_functional/wb97x-d-peroxide/wb97x-d-peroxide_opt
 Hartree-Fock type      HFTyp           .... UHF
 Total Charge           Charge          ....    0
 Multiplicity           Mult            ....    1
 Number of Electrons    NEL             ....  174
 Basis Dimension        Dim             ....  778
 Nuclear Repulsion      ENuc            ....   1970.1422469238 Eh

Convergence Acceleration:
 DIIS                   CNVDIIS         .... on
   Start iteration      DIISMaxIt       ....    12
   Startup error        DIISStart       ....  0.200000
   # of expansion vecs  DIISMaxEq       ....     5
   Bias factor          DIISBfac        ....   1.050
   Max. coefficient     DIISMaxC        ....  10.000
 Trust-Rad. Augm. Hess. CNVTRAH         .... auto
   Auto Start mean grad. ratio tolernc. ....  1.125000
   Auto Start start iteration           ....    20
   Auto Start num. interpolation iter.  ....    10
   Max. Number of Micro iterations      ....    16
   Max. Number of Macro iterations      .... Maxiter - #DIIS iter
   Number of Davidson start vectors     ....     2
   Converg. threshold I  (grad. norm)   ....   1.000e-05
   Converg. threshold II (energy diff.) ....   1.000e-08
   Grad. Scal. Fac. for Micro threshold ....   0.100
   Minimum threshold for Micro iter.    ....   0.010
   NR start threshold (gradient norm)   ....   0.001
   Initial trust radius                 ....   0.400
   Minimum AH scaling param. (alpha)    ....   1.000
   Maximum AH scaling param. (alpha)    .... 1000.000
   Orbital update algorithm             .... Taylor
   White noise on init. David. guess    .... on
   Maximum white noise                  ....   0.010
   Quad. conv. algorithm                .... NR
 SOSCF                  CNVSOSCF        .... off
 Level Shifting         CNVShift        .... on
   Level shift para.    LevelShift      ....    0.2500
   Turn off err/grad.   ShiftErr        ....    0.0010
 Zerner damping         CNVZerner       .... off
 Static damping         CNVDamp         .... on
   Fraction old density DampFac         ....    0.7000
   Max. Damping (<1)    DampMax         ....    0.9800
   Min. Damping (>=0)   DampMin         ....    0.0000
   Turn off err/grad.   DampErr         ....    0.1000
 Fernandez-Rico         CNVRico         .... off

SCF Procedure:
 Maximum # iterations   MaxIter         ....   125
 SCF integral mode      SCFMode         .... Direct
   Integral package                     .... SHARK and LIBINT hybrid scheme
 Reset frequency        DirectResetFreq ....    20
 Integral Threshold     Thresh          ....  2.500e-11 Eh
 Primitive CutOff       TCut            ....  2.500e-12 Eh

Convergence Tolerance:
 Convergence Check Mode ConvCheckMode   .... Total+1el-Energy
 Convergence forced     ConvForced      .... 0
 Energy Change          TolE            ....  1.000e-08 Eh
 1-El. energy change                    ....  1.000e-05 Eh
 DIIS Error             TolErr          ....  5.000e-07


Diagonalization of the overlap matrix:
Smallest eigenvalue                        ... 6.410e-06
Time for diagonalization                   ...    0.305 sec
Threshold for overlap eigenvalues          ... 1.000e-08
Number of eigenvalues below threshold      ... 0
Time for construction of square roots      ...    0.555 sec
Total time needed                          ...    1.203 sec

Time for model grid setup =    2.918 sec

------------------------------
INITIAL GUESS: MODEL POTENTIAL
------------------------------
Loading Hartree-Fock densities                     ... done
Calculating cut-offs                               ... done
Initializing the effective Hamiltonian             ... done
Setting up the integral package (SHARK)            ... done
Starting the Coulomb interaction                   ... done (   2.7 sec)
Reading the grid                                   ... done
Mapping shells                                     ... done
Starting the XC term evaluation                    ... done (   0.7 sec)
  promolecular density results
     # of electrons  =    174.001529421
     EX              =   -168.410428734
     EC              =     -6.029879073
     EX+EC           =   -174.440307808
Transforming the Hamiltonian                       ... done (   1.1 sec)
Diagonalizing the Hamiltonian                      ... done (   1.2 sec)
Back transforming the eigenvectors                 ... done (   0.1 sec)
Now organizing SCF variables                       ... done
                      ------------------
                      INITIAL GUESS DONE (   9.5 sec)
                      ------------------
-------------------
DFT GRID GENERATION
-------------------

General Integration Accuracy     IntAcc      ... 4.388
Radial Grid Type                 RadialGrid  ... OptM3 with GC (2021)
Angular Grid (max. ang.)         AngularGrid ... 4 (Lebedev-302)
Angular grid pruning method      GridPruning ... 4 (adaptive)
Weight generation scheme         WeightScheme... Becke
Basis function cutoff            BFCut       ... 1.0000e-11
Integration weight cutoff        WCut        ... 1.0000e-14
Angular grids for H and He will be reduced by one unit
Partially contracted basis set               ... off
Rotationally invariant grid construction     ... off

Total number of grid points                  ...   179155
Total number of batches                      ...     2817
Average number of points per batch           ...       63
Average number of grid points per atom       ...     4977
Time for grid setup =    7.890 sec

--------------------
COSX GRID GENERATION
--------------------

GRIDX 1
-------
General Integration Accuracy     IntAcc      ... 3.816
Radial Grid Type                 RadialGrid  ... OptM3 with GC (2021)
Angular Grid (max. ang.)         AngularGrid ... 1 (Lebedev-50)
Angular grid pruning method      GridPruning ... 4 (adaptive)
Weight generation scheme         WeightScheme... Becke
Basis function cutoff            BFCut       ... 1.0000e-11
Integration weight cutoff        WCut        ... 1.0000e-14
Angular grids for H and He will be reduced by one unit
Partially contracted basis set               ... on
Rotationally invariant grid construction     ... off

Total number of grid points                  ...    22611
Total number of batches                      ...      371
Average number of points per batch           ...       60
Average number of grid points per atom       ...      628
UseSFitting                                  ... on

GRIDX 2
-------
General Integration Accuracy     IntAcc      ... 4.020
Radial Grid Type                 RadialGrid  ... OptM3 with GC (2021)
Angular Grid (max. ang.)         AngularGrid ... 2 (Lebedev-110)
Angular grid pruning method      GridPruning ... 4 (adaptive)
Weight generation scheme         WeightScheme... Becke
Basis function cutoff            BFCut       ... 1.0000e-11
Integration weight cutoff        WCut        ... 1.0000e-14
Angular grids for H and He will be reduced by one unit
Partially contracted basis set               ... on
Rotationally invariant grid construction     ... off

Total number of grid points                  ...    49564
Total number of batches                      ...      788
Average number of points per batch           ...       62
Average number of grid points per atom       ...     1377
UseSFitting                                  ... on

GRIDX 3
-------
General Integration Accuracy     IntAcc      ... 4.338
Radial Grid Type                 RadialGrid  ... OptM3 with GC (2021)
Angular Grid (max. ang.)         AngularGrid ... 3 (Lebedev-194)
Angular grid pruning method      GridPruning ... 4 (adaptive)
Weight generation scheme         WeightScheme... Becke
Basis function cutoff            BFCut       ... 1.0000e-11
Integration weight cutoff        WCut        ... 1.0000e-14
Angular grids for H and He will be reduced by one unit
Partially contracted basis set               ... on
Rotationally invariant grid construction     ... off

Total number of grid points                  ...   109616
Total number of batches                      ...     1732
Average number of points per batch           ...       63
Average number of grid points per atom       ...     3045
UseSFitting                                  ... on

Time for X-Grid setup             =   10.602 sec

--------------
SCF ITERATIONS
--------------
ITER       Energy         Delta-E        Max-DP      RMS-DP      [F,P]     Damp
               ***  Starting incremental Fock matrix formation  ***
  0  -1714.8750570925   0.000000000000 0.02438789  0.00031051  0.1384658 0.7000
  1  -1715.1118797727  -0.236822680265 0.01831445  0.00024204  0.0641027 0.7000
                               ***Turning on DIIS***
  2  -1715.2209083647  -0.109028591975 0.03076640  0.00047333  0.0230621 0.0000
  3  -1715.4046190802  -0.183710715498 0.01751312  0.00018031  0.0300490 0.0000
  4  -1715.4333022304  -0.028683150222 0.00785306  0.00008273  0.0061313 0.0000
  5  -1715.4347880022  -0.001485771797 0.00381676  0.00004223  0.0045517 0.0000
  6  -1715.4352173728  -0.000429370615 0.00241168  0.00002654  0.0011474 0.0000
  7  -1715.4353443584  -0.000126985550 0.00209147  0.00002346  0.0006917 0.0000
               *** Restarting incremental Fock matrix formation ***
                                   *** Resetting DIIS ***
  8  -1715.4353525410  -0.000008182617 0.00136435  0.00001718  0.0010297 0.0000
  9  -1715.4353564569  -0.000003915869 0.00022258  0.00000341  0.0010299 0.0000
 10  -1715.4353613880  -0.000004931144 0.00022462  0.00000323  0.0001119 0.0000
 11  -1715.4353629063  -0.000001518315 0.00015276  0.00000172  0.0000699 0.0000
 12  -1715.4353631788  -0.000000272431 0.00006552  0.00000069  0.0000504 0.0000
 13  -1715.4353632093  -0.000000030551 0.00001607  0.00000026  0.0000164 0.0000
 14  -1715.4353631982   0.000000011103 0.00003881  0.00000037  0.0000064 0.0000
 15  -1715.4353632322  -0.000000034025 0.00002174  0.00000031  0.0000019 0.0000
 16  -1715.4353632131   0.000000019148 0.00001645  0.00000021  0.0000014 0.0000
                 **** Energy Check signals convergence ****

               *****************************************************
               *                     SUCCESS                       *
               *           SCF CONVERGED AFTER  17 CYCLES          *
               *****************************************************

Old exchange energy                            =    -52.177678649 Eh
New exchange energy                            =    -52.177650916 Eh
Exchange energy change after final integration =      0.000027733 Eh
Total energy after final integration           =  -1715.435335487 Eh
Final COS-X integration done in                =    87.140 sec

----------------
TOTAL SCF ENERGY
----------------

Total Energy       :        -1715.43533549 Eh          -46679.36861 eV

Components:
Nuclear Repulsion  :         1970.14224692 Eh           53610.29603 eV
Electronic Energy  :        -3685.57758241 Eh         -100289.66465 eV
One Electron Energy:        -6267.68142998 Eh         -170552.28242 eV
Two Electron Energy:         2582.10384757 Eh           70262.61777 eV
Max COSX asymmetry :            0.00000040 Eh               0.00001 eV

Virial components:
Potential Energy   :        -3425.79751912 Eh          -93220.68974 eV
Kinetic Energy     :         1710.36218363 Eh           46541.32113 eV
Virial Ratio       :            2.00296613


DFT components:
N(Alpha)           :       86.999995512868 electrons
N(Beta)            :       86.999995512868 electrons
N(Total)           :      173.999991025736 electrons
E(XC)              :     -125.560709506455 Eh       
DFET-embed. en.    :        0.000000000000 Eh       

---------------
SCF CONVERGENCE
---------------

  Last Energy change         ...   -6.8208e-09  Tolerance :   1.0000e-08
  Last MAX-Density change    ...    0.0000e+00  Tolerance :   1.0000e-07
  Last RMS-Density change    ...    0.0000e+00  Tolerance :   5.0000e-09
  Last DIIS Error            ...    4.5853e-07  Tolerance :   5.0000e-07

             **** THE GBW FILE WAS UPDATED (/burg/berkelbach/users/eav2136/projects/peroxide_dissociation/05_range_separated_functional/wb97x-d-peroxide/wb97x-d-peroxide_opt.gbw) ****
             **** DENSITY /burg/berkelbach/users/eav2136/projects/peroxide_dissociation/05_range_separated_functional/wb97x-d-peroxide/wb97x-d-peroxide_opt.scfp WAS UPDATED ****
             **** ENERGY FILE WAS UPDATED (/burg/berkelbach/users/eav2136/projects/peroxide_dissociation/05_range_separated_functional/wb97x-d-peroxide/wb97x-d-peroxide_opt.en.tmp) ****
----------------------
UHF SPIN CONTAMINATION
----------------------

Warning: in a DFT calculation there is little theoretical justification to 
         calculate <S**2> as in Hartree-Fock theory. We will do it anyways
         but you should keep in mind that the values have only limited relevance

Expectation value of <S**2>     :     0.000000
Ideal value S*(S+1) for S=0.0   :     0.000000
Deviation                       :     0.000000

             **** THE GBW FILE WAS UPDATED (/burg/berkelbach/users/eav2136/projects/peroxide_dissociation/05_range_separated_functional/wb97x-d-peroxide/wb97x-d-peroxide_opt.gbw) ****
             **** DENSITY /burg/berkelbach/users/eav2136/projects/peroxide_dissociation/05_range_separated_functional/wb97x-d-peroxide/wb97x-d-peroxide_opt.scfp WAS UPDATED ****
----------------
ORBITAL ENERGIES
----------------
                 SPIN UP ORBITALS
  NO   OCC          E(Eh)            E(eV) 
   0   1.0000     -88.971669     -2421.0422 
   1   1.0000     -88.967799     -2420.9369 
   2   1.0000     -19.347651      -526.4763 
   3   1.0000     -19.342800      -526.3443 
   4   1.0000     -19.236894      -523.4625 
   5   1.0000     -19.234953      -523.4097 
   6   1.0000     -10.427834      -283.7558 
   7   1.0000     -10.425331      -283.6877 
   8   1.0000     -10.342183      -281.4251 
   9   1.0000     -10.337321      -281.2928 
  10   1.0000     -10.322756      -280.8965 
  11   1.0000     -10.319633      -280.8115 
  12   1.0000     -10.311749      -280.5970 
  13   1.0000     -10.310837      -280.5721 
  14   1.0000     -10.310414      -280.5606 
  15   1.0000     -10.307484      -280.4809 
  16   1.0000     -10.307056      -280.4692 
  17   1.0000     -10.305388      -280.4239 
  18   1.0000     -10.304091      -280.3886 
  19   1.0000     -10.302641      -280.3491 
  20   1.0000     -10.301411      -280.3156 
  21   1.0000     -10.300043      -280.2784 
  22   1.0000      -8.068812      -219.5635 
  23   1.0000      -8.064934      -219.4580 
  24   1.0000      -6.022816      -163.8892 
  25   1.0000      -6.018958      -163.7842 
  26   1.0000      -6.018656      -163.7760 
  27   1.0000      -6.014817      -163.6715 
  28   1.0000      -6.013934      -163.6475 
  29   1.0000      -6.010008      -163.5406 
  30   1.0000      -1.322477       -35.9864 
  31   1.0000      -1.209161       -32.9029 
  32   1.0000      -1.177663       -32.0458 
  33   1.0000      -1.081218       -29.4214 
  34   1.0000      -1.014796       -27.6140 
  35   1.0000      -1.012697       -27.5569 
  36   1.0000      -0.950041       -25.8519 
  37   1.0000      -0.947262       -25.7763 
  38   1.0000      -0.894632       -24.3442 
  39   1.0000      -0.891832       -24.2680 
  40   1.0000      -0.887499       -24.1501 
  41   1.0000      -0.884378       -24.0651 
  42   1.0000      -0.813067       -22.1247 
  43   1.0000      -0.800698       -21.7881 
  44   1.0000      -0.762717       -20.7546 
  45   1.0000      -0.747969       -20.3533 
  46   1.0000      -0.746282       -20.3074 
  47   1.0000      -0.728051       -19.8113 
  48   1.0000      -0.708181       -19.2706 
  49   1.0000      -0.689002       -18.7487 
  50   1.0000      -0.668366       -18.1872 
  51   1.0000      -0.656902       -17.8752 
  52   1.0000      -0.616950       -16.7881 
  53   1.0000      -0.605367       -16.4729 
  54   1.0000      -0.595652       -16.2085 
  55   1.0000      -0.592580       -16.1249 
  56   1.0000      -0.583772       -15.8852 
  57   1.0000      -0.571076       -15.5398 
  58   1.0000      -0.569273       -15.4907 
  59   1.0000      -0.567676       -15.4473 
  60   1.0000      -0.560350       -15.2479 
  61   1.0000      -0.556336       -15.1387 
  62   1.0000      -0.553247       -15.0546 
  63   1.0000      -0.547687       -14.9033 
  64   1.0000      -0.541442       -14.7334 
  65   1.0000      -0.535895       -14.5825 
  66   1.0000      -0.530074       -14.4241 
  67   1.0000      -0.522477       -14.2173 
  68   1.0000      -0.510771       -13.8988 
  69   1.0000      -0.501821       -13.6553 
  70   1.0000      -0.499039       -13.5795 
  71   1.0000      -0.483634       -13.1603 
  72   1.0000      -0.475615       -12.9421 
  73   1.0000      -0.462471       -12.5845 
  74   1.0000      -0.460626       -12.5343 
  75   1.0000      -0.451504       -12.2860 
  76   1.0000      -0.432615       -11.7720 
  77   1.0000      -0.429336       -11.6828 
  78   1.0000      -0.416462       -11.3325 
  79   1.0000      -0.409367       -11.1394 
  80   1.0000      -0.406561       -11.0631 
  81   1.0000      -0.396514       -10.7897 
  82   1.0000      -0.387034       -10.5317 
  83   1.0000      -0.369591       -10.0571 
  84   1.0000      -0.365114        -9.9353 
  85   1.0000      -0.314342        -8.5537 
  86   1.0000      -0.310105        -8.4384 
  87   0.0000       0.001843         0.0501 
  88   0.0000       0.017755         0.4831 
  89   0.0000       0.041213         1.1215 
  90   0.0000       0.044480         1.2104 
  91   0.0000       0.078087         2.1249 
  92   0.0000       0.086952         2.3661 
  93   0.0000       0.091191         2.4814 
  94   0.0000       0.109873         2.9898 
  95   0.0000       0.113623         3.0918 
  96   0.0000       0.117122         3.1870 
  97   0.0000       0.121623         3.3095 
  98   0.0000       0.139285         3.7901 
  99   0.0000       0.142075         3.8661 
 100   0.0000       0.149944         4.0802 
 101   0.0000       0.151414         4.1202 
 102   0.0000       0.155717         4.2373 
 103   0.0000       0.163629         4.4526 
 104   0.0000       0.165654         4.5077 
 105   0.0000       0.167296         4.5524 
 106   0.0000       0.170459         4.6384 
 107   0.0000       0.173967         4.7339 
 108   0.0000       0.178692         4.8624 
 109   0.0000       0.191076         5.1994 
 110   0.0000       0.195104         5.3091 
 111   0.0000       0.203547         5.5388 
 112   0.0000       0.205565         5.5937 
 113   0.0000       0.211419         5.7530 
 114   0.0000       0.214476         5.8362 
 115   0.0000       0.226289         6.1576 
 116   0.0000       0.231027         6.2866 
 117   0.0000       0.233083         6.3425 
 118   0.0000       0.245431         6.6785 
 119   0.0000       0.252465         6.8699 
 120   0.0000       0.258691         7.0393 
 121   0.0000       0.265604         7.2274 
 122   0.0000       0.271951         7.4002 
 123   0.0000       0.277548         7.5525 
 124   0.0000       0.283169         7.7054 
 125   0.0000       0.285638         7.7726 
 126   0.0000       0.287609         7.8262 
 127   0.0000       0.289044         7.8653 
 128   0.0000       0.292457         7.9581 
 129   0.0000       0.301784         8.2119 
 130   0.0000       0.303296         8.2531 
 131   0.0000       0.312892         8.5142 
 132   0.0000       0.316620         8.6157 
 133   0.0000       0.319331         8.6894 
 134   0.0000       0.321416         8.7462 
 135   0.0000       0.324018         8.8170 
 136   0.0000       0.327659         8.9161 
 137   0.0000       0.328883         8.9494 
 138   0.0000       0.335576         9.1315 
 139   0.0000       0.337184         9.1752 
 140   0.0000       0.343311         9.3420 
 141   0.0000       0.353486         9.6189 
 142   0.0000       0.358458         9.7541 
 143   0.0000       0.365489         9.9455 
 144   0.0000       0.372861        10.1461 
 145   0.0000       0.373359        10.1596 
 146   0.0000       0.378714        10.3053 
 147   0.0000       0.389027        10.5860 
 148   0.0000       0.390940        10.6380 
 149   0.0000       0.396156        10.7799 
 150   0.0000       0.402066        10.9408 
 151   0.0000       0.406628        11.0649 
 152   0.0000       0.408621        11.1192 
 153   0.0000       0.415279        11.3003 
 154   0.0000       0.415993        11.3197 
 155   0.0000       0.419315        11.4102 
 156   0.0000       0.423777        11.5316 
 157   0.0000       0.432141        11.7591 
 158   0.0000       0.439028        11.9466 
 159   0.0000       0.441496        12.0137 
 160   0.0000       0.444130        12.0854 
 161   0.0000       0.445372        12.1192 
 162   0.0000       0.449880        12.2419 
 163   0.0000       0.455772        12.4022 
 164   0.0000       0.462082        12.5739 
 165   0.0000       0.466609        12.6971 
 166   0.0000       0.472947        12.8695 
 167   0.0000       0.474053        12.8996 
 168   0.0000       0.477737        12.9999 
 169   0.0000       0.480387        13.0720 
 170   0.0000       0.481873        13.1124 
 171   0.0000       0.486943        13.2504 
 172   0.0000       0.496834        13.5195 
 173   0.0000       0.498264        13.5584 
 174   0.0000       0.502283        13.6678 
 175   0.0000       0.506239        13.7755 
 176   0.0000       0.513157        13.9637 
 177   0.0000       0.513796        13.9811 
 178   0.0000       0.521773        14.1982 
 179   0.0000       0.527465        14.3531 
 180   0.0000       0.529715        14.4143 
 181   0.0000       0.538186        14.6448 
 182   0.0000       0.539073        14.6689 
 183   0.0000       0.542061        14.7502 
 184   0.0000       0.546927        14.8826 
 185   0.0000       0.550132        14.9699 
 186   0.0000       0.553893        15.0722 
 187   0.0000       0.558217        15.1898 
 188   0.0000       0.565004        15.3745 
 189   0.0000       0.570802        15.5323 
 190   0.0000       0.576953        15.6997 
 191   0.0000       0.581020        15.8104 
 192   0.0000       0.586469        15.9586 
 193   0.0000       0.595808        16.2127 
 194   0.0000       0.601971        16.3805 
 195   0.0000       0.606141        16.4939 
 196   0.0000       0.608101        16.5473 
 197   0.0000       0.617150        16.7935 
 198   0.0000       0.621279        16.9059 
 199   0.0000       0.626985        17.0611 
 200   0.0000       0.629148        17.1200 
 201   0.0000       0.630437        17.1551 
 202   0.0000       0.634039        17.2531 
 203   0.0000       0.647802        17.6276 
 204   0.0000       0.654824        17.8187 
 205   0.0000       0.665825        18.1180 
 206   0.0000       0.674975        18.3670 
 207   0.0000       0.678064        18.4510 
 208   0.0000       0.686009        18.6673 
 209   0.0000       0.690935        18.8013 
 210   0.0000       0.699447        19.0329 
 211   0.0000       0.707471        19.2513 
 212   0.0000       0.712332        19.3835 
 213   0.0000       0.719785        19.5863 
 214   0.0000       0.726341        19.7648 
 215   0.0000       0.733650        19.9636 
 216   0.0000       0.744587        20.2612 
 217   0.0000       0.753018        20.4907 
 218   0.0000       0.758218        20.6322 
 219   0.0000       0.762342        20.7444 
 220   0.0000       0.764242        20.7961 
 221   0.0000       0.773249        21.0412 
 222   0.0000       0.777194        21.1485 
 223   0.0000       0.781874        21.2759 
 224   0.0000       0.783499        21.3201 
 225   0.0000       0.792800        21.5732 
 226   0.0000       0.795621        21.6499 
 227   0.0000       0.802507        21.8373 
 228   0.0000       0.808133        21.9904 
 229   0.0000       0.810005        22.0414 
 230   0.0000       0.818273        22.2663 
 231   0.0000       0.831401        22.6236 
 232   0.0000       0.836883        22.7727 
 233   0.0000       0.841935        22.9102 
 234   0.0000       0.848294        23.0833 
 235   0.0000       0.853291        23.2192 
 236   0.0000       0.856681        23.3115 
 237   0.0000       0.860132        23.4054 
 238   0.0000       0.864727        23.5304 
 239   0.0000       0.872027        23.7291 
 240   0.0000       0.874205        23.7883 
 241   0.0000       0.875240        23.8165 
 242   0.0000       0.886391        24.1199 
 243   0.0000       0.894796        24.3486 
 244   0.0000       0.898025        24.4365 
 245   0.0000       0.903312        24.5804 
 246   0.0000       0.914211        24.8770 
 247   0.0000       0.929344        25.2887 
 248   0.0000       0.933597        25.4045 
 249   0.0000       0.937487        25.5103 
 250   0.0000       0.947694        25.7881 
 251   0.0000       0.951838        25.9008 
 252   0.0000       0.954637        25.9770 
 253   0.0000       0.964245        26.2384 
 254   0.0000       0.968523        26.3549 
 255   0.0000       0.977841        26.6084 
 256   0.0000       0.987300        26.8658 
 257   0.0000       0.991803        26.9883 
 258   0.0000       0.995918        27.1003 
 259   0.0000       1.001804        27.2605 
 260   0.0000       1.012153        27.5421 
 261   0.0000       1.020624        27.7726 
 262   0.0000       1.025592        27.9078 
 263   0.0000       1.032965        28.1084 
 264   0.0000       1.040768        28.3207 
 265   0.0000       1.045113        28.4390 
 266   0.0000       1.051635        28.6165 
 267   0.0000       1.059860        28.8403 
 268   0.0000       1.066462        29.0199 
 269   0.0000       1.080148        29.3923 
 270   0.0000       1.082838        29.4655 
 271   0.0000       1.093064        29.7438 
 272   0.0000       1.096182        29.8286 
 273   0.0000       1.105616        30.0853 
 274   0.0000       1.110912        30.2294 
 275   0.0000       1.116995        30.3950 
 276   0.0000       1.128851        30.7176 
 277   0.0000       1.136669        30.9303 
 278   0.0000       1.155435        31.4410 
 279   0.0000       1.159244        31.5446 
 280   0.0000       1.164052        31.6755 
 281   0.0000       1.170859        31.8607 
 282   0.0000       1.180296        32.1175 
 283   0.0000       1.189504        32.3680 
 284   0.0000       1.214306        33.0429 
 285   0.0000       1.215945        33.0875 
 286   0.0000       1.231509        33.5111 
 287   0.0000       1.241513        33.7833 
 288   0.0000       1.251927        34.0667 
 289   0.0000       1.258284        34.2396 
 290   0.0000       1.275163        34.6989 
 291   0.0000       1.289661        35.0935 
 292   0.0000       1.296525        35.2802 
 293   0.0000       1.303535        35.4710 
 294   0.0000       1.309603        35.6361 
 295   0.0000       1.315391        35.7936 
 296   0.0000       1.317344        35.8468 
 297   0.0000       1.322296        35.9815 
 298   0.0000       1.334234        36.3064 
 299   0.0000       1.343178        36.5497 
 300   0.0000       1.357660        36.9438 
 301   0.0000       1.362092        37.0644 
 302   0.0000       1.373856        37.3845 
 303   0.0000       1.375102        37.4184 
 304   0.0000       1.383658        37.6512 
 305   0.0000       1.387563        37.7575 
 306   0.0000       1.399272        38.0761 
 307   0.0000       1.411863        38.4187 
 308   0.0000       1.416243        38.5379 
 309   0.0000       1.428136        38.8615 
 310   0.0000       1.445251        39.3273 
 311   0.0000       1.455030        39.5934 
 312   0.0000       1.474849        40.1327 
 313   0.0000       1.479897        40.2700 
 314   0.0000       1.501859        40.8677 
 315   0.0000       1.510121        41.0925 
 316   0.0000       1.521775        41.4096 
 317   0.0000       1.525168        41.5019 
 318   0.0000       1.530650        41.6511 
 319   0.0000       1.536130        41.8002 
 320   0.0000       1.548443        42.1353 
 321   0.0000       1.549754        42.1709 
 322   0.0000       1.566525        42.6273 
 323   0.0000       1.569689        42.7134 
 324   0.0000       1.580714        43.0134 
 325   0.0000       1.583622        43.0925 
 326   0.0000       1.587380        43.1948 
 327   0.0000       1.589244        43.2455 
 328   0.0000       1.593036        43.3487 
 329   0.0000       1.595454        43.4145 
 330   0.0000       1.598137        43.4875 
 331   0.0000       1.602044        43.5938 
 332   0.0000       1.607112        43.7317 
 333   0.0000       1.612402        43.8757 
 334   0.0000       1.619614        44.0719 
 335   0.0000       1.624366        44.2013 
 336   0.0000       1.629373        44.3375 
 337   0.0000       1.635577        44.5063 
 338   0.0000       1.637282        44.5527 
 339   0.0000       1.642449        44.6933 
 340   0.0000       1.649283        44.8793 
 341   0.0000       1.656939        45.0876 
 342   0.0000       1.663433        45.2643 
 343   0.0000       1.666419        45.3456 
 344   0.0000       1.671576        45.4859 
 345   0.0000       1.678431        45.6724 
 346   0.0000       1.686938        45.9039 
 347   0.0000       1.690964        46.0135 
 348   0.0000       1.696146        46.1545 
 349   0.0000       1.702514        46.3278 
 350   0.0000       1.703840        46.3638 
 351   0.0000       1.710635        46.5487 
 352   0.0000       1.712040        46.5870 
 353   0.0000       1.726873        46.9906 
 354   0.0000       1.742623        47.4192 
 355   0.0000       1.747362        47.5481 
 356   0.0000       1.753016        47.7020 
 357   0.0000       1.757981        47.8371 
 358   0.0000       1.764564        48.0162 
 359   0.0000       1.765255        48.0350 
 360   0.0000       1.769711        48.1563 
 361   0.0000       1.774117        48.2762 
 362   0.0000       1.781055        48.4650 
 363   0.0000       1.787562        48.6420 
 364   0.0000       1.801362        49.0175 
 365   0.0000       1.806018        49.1443 
 366   0.0000       1.812436        49.3189 
 367   0.0000       1.822032        49.5800 
 368   0.0000       1.833997        49.9056 
 369   0.0000       1.840205        50.0745 
 370   0.0000       1.865285        50.7570 
 371   0.0000       1.870808        50.9073 
 372   0.0000       1.881660        51.2026 
 373   0.0000       1.897549        51.6349 
 374   0.0000       1.899195        51.6797 
 375   0.0000       1.905675        51.8561 
 376   0.0000       1.906914        51.8898 
 377   0.0000       1.912706        52.0474 
 378   0.0000       1.914645        52.1001 
 379   0.0000       1.922543        52.3151 
 380   0.0000       1.927745        52.4566 
 381   0.0000       1.935648        52.6717 
 382   0.0000       1.938936        52.7611 
 383   0.0000       1.942806        52.8664 
 384   0.0000       1.949787        53.0564 
 385   0.0000       1.950371        53.0723 
 386   0.0000       1.959236        53.3135 
 387   0.0000       1.961853        53.3847 
 388   0.0000       1.963974        53.4424 
 389   0.0000       1.973607        53.7046 
 390   0.0000       1.987486        54.0822 
 391   0.0000       1.994386        54.2700 
 392   0.0000       2.000508        54.4366 
 393   0.0000       2.016314        54.8667 
 394   0.0000       2.033396        55.3315 
 395   0.0000       2.049655        55.7740 
 396   0.0000       2.054044        55.8934 
 397   0.0000       2.059127        56.0317 
 398   0.0000       2.066101        56.2215 
 399   0.0000       2.083962        56.7075 
 400   0.0000       2.101936        57.1966 
 401   0.0000       2.107580        57.3502 
 402   0.0000       2.118006        57.6339 
 403   0.0000       2.121022        57.7159 
 404   0.0000       2.137441        58.1627 
 405   0.0000       2.146553        58.4107 
 406   0.0000       2.156553        58.6828 
 407   0.0000       2.166507        58.9536 
 408   0.0000       2.169800        59.0433 
 409   0.0000       2.177299        59.2473 
 410   0.0000       2.182742        59.3954 
 411   0.0000       2.187352        59.5209 
 412   0.0000       2.188887        59.5626 
 413   0.0000       2.197986        59.8102 
 414   0.0000       2.202163        59.9239 
 415   0.0000       2.214682        60.2646 
 416   0.0000       2.228676        60.6454 
 417   0.0000       2.242238        61.0144 
 418   0.0000       2.244947        61.0881 
 419   0.0000       2.250651        61.2433 
 420   0.0000       2.258283        61.4510 
 421   0.0000       2.264773        61.6276 
 422   0.0000       2.268560        61.7307 
 423   0.0000       2.272187        61.8294 
 424   0.0000       2.282057        62.0979 
 425   0.0000       2.294524        62.4372 
 426   0.0000       2.304566        62.7104 
 427   0.0000       2.311782        62.9068 
 428   0.0000       2.313617        62.9567 
 429   0.0000       2.317959        63.0749 
 430   0.0000       2.325547        63.2813 
 431   0.0000       2.357568        64.1527 
 432   0.0000       2.366302        64.3904 
 433   0.0000       2.371793        64.5398 
 434   0.0000       2.378001        64.7087 
 435   0.0000       2.385263        64.9063 
 436   0.0000       2.395044        65.1724 
 437   0.0000       2.417649        65.7876 
 438   0.0000       2.424274        65.9679 
 439   0.0000       2.433059        66.2069 
 440   0.0000       2.436093        66.2895 
 441   0.0000       2.444581        66.5204 
 442   0.0000       2.468356        67.1674 
 443   0.0000       2.471126        67.2427 
 444   0.0000       2.480556        67.4994 
 445   0.0000       2.490987        67.7832 
 446   0.0000       2.494818        67.8874 
 447   0.0000       2.500595        68.0446 
 448   0.0000       2.504160        68.1416 
 449   0.0000       2.524589        68.6975 
 450   0.0000       2.533981        68.9531 
 451   0.0000       2.554446        69.5100 
 452   0.0000       2.581300        70.2407 
[...]
      dx2y2   :    -0.000000
      dxy     :     0.000000
      f0      :     0.000000  f :    -0.000000
      f+1     :    -0.000000
      f-1     :     0.000000
      f+2     :    -0.000000
      f-2     :    -0.000000
      f+3     :    -0.000000
      f-3     :    -0.000000
  7 C s       :     0.000000  s :     0.000000
      pz      :     0.000000  p :     0.000000
      px      :     0.000000
      py      :     0.000000
      dz2     :     0.000000  d :    -0.000000
      dxz     :    -0.000000
      dyz     :    -0.000000
      dx2y2   :    -0.000000
      dxy     :     0.000000
      f0      :    -0.000000  f :    -0.000000
      f+1     :    -0.000000
      f-1     :    -0.000000
      f+2     :    -0.000000
      f-2     :    -0.000000
      f+3     :    -0.000000
      f-3     :    -0.000000
  8 C s       :     0.000000  s :     0.000000
      pz      :    -0.000000  p :    -0.000000
      px      :    -0.000000
      py      :    -0.000000
      dz2     :     0.000000  d :     0.000000
      dxz     :    -0.000000
      dyz     :     0.000000
      dx2y2   :     0.000000
      dxy     :     0.000000
      f0      :    -0.000000  f :     0.000000
      f+1     :     0.000000
      f-1     :     0.000000
      f+2     :     0.000000
      f-2     :    -0.000000
      f+3     :     0.000000
      f-3     :    -0.000000
  9 O s       :    -0.000000  s :    -0.000000
      pz      :    -0.000000  p :    -0.000000
      px      :    -0.000000
      py      :    -0.000000
      dz2     :    -0.000000  d :     0.000000
      dxz     :     0.000000
      dyz     :    -0.000000
      dx2y2   :     0.000000
      dxy     :     0.000000
      f0      :    -0.000000  f :    -0.000000
      f+1     :     0.000000
      f-1     :    -0.000000
      f+2     :    -0.000000
      f-2     :    -0.000000
      f+3     :    -0.000000
      f-3     :    -0.000000
 10 O s       :     0.000000  s :     0.000000
      pz      :    -0.000000  p :     0.000000
      px      :     0.000000
      py      :    -0.000000
      dz2     :    -0.000000  d :    -0.000000
      dxz     :    -0.000000
      dyz     :     0.000000
      dx2y2   :    -0.000000
      dxy     :    -0.000000
      f0      :    -0.000000  f :    -0.000000
      f+1     :    -0.000000
      f-1     :    -0.000000
      f+2     :     0.000000
      f-2     :    -0.000000
      f+3     :    -0.000000
      f-3     :    -0.000000
 11 O s       :     0.000000  s :     0.000000
      pz      :    -0.000000  p :    -0.000000
      px      :    -0.000000
      py      :    -0.000000
      dz2     :    -0.000000  d :    -0.000000
      dxz     :     0.000000
      dyz     :    -0.000000
      dx2y2   :    -0.000000
      dxy     :     0.000000
      f0      :    -0.000000  f :    -0.000000
      f+1     :    -0.000000
      f-1     :     0.000000
      f+2     :     0.000000
      f-2     :    -0.000000
      f+3     :    -0.000000
      f-3     :     0.000000
 12 C s       :    -0.000000  s :    -0.000000
      pz      :    -0.000000  p :    -0.000000
      px      :    -0.000000
      py      :    -0.000000
      dz2     :     0.000000  d :     0.000000
      dxz     :     0.000000
      dyz     :    -0.000000
      dx2y2   :     0.000000
      dxy     :     0.000000
      f0      :     0.000000  f :     0.000000
      f+1     :     0.000000
      f-1     :     0.000000
      f+2     :     0.000000
      f-2     :    -0.000000
      f+3     :     0.000000
      f-3     :     0.000000
 13 C s       :    -0.000000  s :    -0.000000
      pz      :     0.000000  p :     0.000000
      px      :     0.000000
      py      :     0.000000
      dz2     :    -0.000000  d :     0.000000
      dxz     :     0.000000
      dyz     :    -0.000000
      dx2y2   :     0.000000
      dxy     :     0.000000
      f0      :     0.000000  f :     0.000000
      f+1     :    -0.000000
      f-1     :    -0.000000
      f+2     :     0.000000
      f-2     :    -0.000000
      f+3     :    -0.000000
      f-3     :    -0.000000
 14 O s       :     0.000000  s :     0.000000
      pz      :     0.000000  p :     0.000000
      px      :     0.000000
      py      :    -0.000000
      dz2     :    -0.000000  d :    -0.000000
      dxz     :    -0.000000
      dyz     :    -0.000000
      dx2y2   :    -0.000000
      dxy     :     0.000000
      f0      :    -0.000000  f :     0.000000
      f+1     :     0.000000
      f-1     :    -0.000000
      f+2     :     0.000000
      f-2     :     0.000000
      f+3     :     0.000000
      f-3     :     0.000000
 15 C s       :     0.000000  s :     0.000000
      pz      :    -0.000000  p :     0.000000
      px      :     0.000000
      py      :     0.000000
      dz2     :     0.000000  d :     0.000000
      dxz     :     0.000000
      dyz     :    -0.000000
      dx2y2   :    -0.000000
      dxy     :    -0.000000
      f0      :     0.000000  f :     0.000000
      f+1     :    -0.000000
      f-1     :    -0.000000
      f+2     :    -0.000000
      f-2     :    -0.000000
      f+3     :    -0.000000
      f-3     :    -0.000000
 16 C s       :    -0.000000  s :    -0.000000
      pz      :     0.000000  p :    -0.000000
      px      :    -0.000000
      py      :    -0.000000
      dz2     :    -0.000000  d :    -0.000000
      dxz     :    -0.000000
      dyz     :    -0.000000
      dx2y2   :     0.000000
      dxy     :    -0.000000
      f0      :    -0.000000  f :     0.000000
      f+1     :     0.000000
      f-1     :    -0.000000
      f+2     :    -0.000000
      f-2     :     0.000000
      f+3     :     0.000000
      f-3     :     0.000000
 17 C s       :     0.000000  s :     0.000000
      pz      :    -0.000000  p :     0.000000
      px      :    -0.000000
      py      :     0.000000
      dz2     :     0.000000  d :     0.000000
      dxz     :     0.000000
      dyz     :    -0.000000
      dx2y2   :    -0.000000
      dxy     :     0.000000
      f0      :     0.000000  f :    -0.000000
      f+1     :    -0.000000
      f-1     :    -0.000000
      f+2     :    -0.000000
      f-2     :    -0.000000
      f+3     :     0.000000
      f-3     :    -0.000000
 18 C s       :    -0.000000  s :    -0.000000
      pz      :     0.000000  p :    -0.000000
      px      :    -0.000000
      py      :    -0.000000
      dz2     :    -0.000000  d :    -0.000000
      dxz     :    -0.000000
      dyz     :    -0.000000
      dx2y2   :     0.000000
      dxy     :    -0.000000
      f0      :     0.000000  f :     0.000000
      f+1     :    -0.000000
      f-1     :     0.000000
      f+2     :     0.000000
      f-2     :    -0.000000
      f+3     :     0.000000
      f-3     :     0.000000
 19 C s       :     0.000000  s :     0.000000
      pz      :     0.000000  p :     0.000000
      px      :    -0.000000
      py      :     0.000000
      dz2     :     0.000000  d :     0.000000
      dxz     :    -0.000000
      dyz     :     0.000000
      dx2y2   :    -0.000000
      dxy     :     0.000000
      f0      :    -0.000000  f :     0.000000
      f+1     :    -0.000000
      f-1     :    -0.000000
      f+2     :     0.000000
      f-2     :     0.000000
      f+3     :     0.000000
      f-3     :     0.000000
 20 S s       :     0.000000  s :     0.000000
      pz      :     0.000000  p :     0.000000
      px      :     0.000000
      py      :     0.000000
      dz2     :    -0.000000  d :    -0.000000
      dxz     :    -0.000000
      dyz     :     0.000000
      dx2y2   :    -0.000000
      dxy     :     0.000000
      f0      :     0.000000  f :     0.000000
      f+1     :    -0.000000
      f-1     :     0.000000
      f+2     :    -0.000000
      f-2     :     0.000000
      f+3     :     0.000000
      f-3     :     0.000000
 21 C s       :    -0.000000  s :    -0.000000
      pz      :    -0.000000  p :    -0.000000
      px      :     0.000000
      py      :    -0.000000
      dz2     :    -0.000000  d :     0.000000
      dxz     :     0.000000
      dyz     :     0.000000
      dx2y2   :    -0.000000
      dxy     :    -0.000000
      f0      :     0.000000  f :     0.000000
      f+1     :    -0.000000
      f-1     :     0.000000
      f+2     :    -0.000000
      f-2     :     0.000000
      f+3     :     0.000000
      f-3     :     0.000000
 22 H s       :    -0.000000  s :    -0.000000
      pz      :    -0.000000  p :    -0.000000
      px      :     0.000000
      py      :     0.000000
 23 H s       :    -0.000000  s :    -0.000000
      pz      :     0.000000  p :     0.000000
      px      :     0.000000
      py      :     0.000000
 24 H s       :     0.000000  s :     0.000000
      pz      :    -0.000000  p :    -0.000000
      px      :    -0.000000
      py      :     0.000000
 25 H s       :    -0.000000  s :    -0.000000
      pz      :     0.000000  p :    -0.000000
      px      :    -0.000000
      py      :    -0.000000
 26 H s       :     0.000000  s :     0.000000
      pz      :     0.000000  p :     0.000000
      px      :     0.000000
      py      :     0.000000
 27 H s       :     0.000000  s :     0.000000
      pz      :    -0.000000  p :    -0.000000
      px      :    -0.000000
      py      :    -0.000000
 28 H s       :    -0.000000  s :    -0.000000
      pz      :     0.000000  p :     0.000000
      px      :     0.000000
      py      :     0.000000
 29 H s       :     0.000000  s :     0.000000
      pz      :     0.000000  p :     0.000000
      px      :    -0.000000
      py      :     0.000000
 30 H s       :    -0.000000  s :    -0.000000
      pz      :     0.000000  p :     0.000000
      px      :     0.000000
      py      :     0.000000
 31 H s       :    -0.000000  s :    -0.000000
      pz      :     0.000000  p :     0.000000
      px      :     0.000000
      py      :     0.000000
 32 H s       :     0.000000  s :     0.000000
      pz      :    -0.000000  p :    -0.000000
      px      :    -0.000000
      py      :    -0.000000
 33 H s       :     0.000000  s :     0.000000
      pz      :    -0.000000  p :    -0.000000
      px      :     0.000000
      py      :    -0.000000
 34 H s       :     0.000000  s :     0.000000
      pz      :    -0.000000  p :    -0.000000
      px      :     0.000000
      py      :    -0.000000
 35 H s       :     0.000000  s :     0.000000
      pz      :    -0.000000  p :     0.000000
      px      :     0.000000
      py      :     0.000000


                      *****************************
                      * MAYER POPULATION ANALYSIS *
                      *****************************

  NA   - Mulliken gross atomic population
  ZA   - Total nuclear charge
  QA   - Mulliken gross atomic charge
  VA   - Mayer's total valence
  BVA  - Mayer's bonded valence
  FA   - Mayer's free valence

  ATOM       NA         ZA         QA         VA         BVA        FA
  0 C      6.3944     6.0000    -0.3944     3.9678     3.9678    -0.0000
  1 S     16.0156    16.0000    -0.0156     2.3953     2.3953    -0.0000
  2 C      5.8499     6.0000     0.1501     3.8756     3.8756     0.0000
  3 C      6.2056     6.0000    -0.2056     3.8758     3.8758     0.0000
  4 C      6.2456     6.0000    -0.2456     4.0156     4.0156     0.0000
  5 C      5.9314     6.0000     0.0686     3.7286     3.7286    -0.0000
  6 C      6.2094     6.0000    -0.2094     4.0357     4.0357     0.0000
  7 C      6.1530     6.0000    -0.1530     3.8707     3.8707     0.0000
  8 C      5.6741     6.0000     0.3259     4.2609     4.2609    -0.0000
  9 O      8.0915     8.0000    -0.0915     2.0061     2.0061     0.0000
 10 O      8.2744     8.0000    -0.2744     2.2352     2.2352     0.0000
 11 O      8.1300     8.0000    -0.1300     2.0209     2.0209     0.0000
 12 C      5.6785     6.0000     0.3215     4.2534     4.2534    -0.0000
 13 C      5.9358     6.0000     0.0642     3.6564     3.6564     0.0000
 14 O      8.2950     8.0000    -0.2950     2.1960     2.1960     0.0000
 15 C      6.2033     6.0000    -0.2033     4.0263     4.0263     0.0000
 16 C      6.1420     6.0000    -0.1420     3.8645     3.8645    -0.0000
 17 C      5.8379     6.0000     0.1621     3.8727     3.8727     0.0000
 18 C      6.2189     6.0000    -0.2189     3.9018     3.9018     0.0000
 19 C      6.2351     6.0000    -0.2351     4.0682     4.0682     0.0000
 20 S     16.0085    16.0000    -0.0085     2.4111     2.4111     0.0000
 21 C      6.3921     6.0000    -0.3921     3.9677     3.9677     0.0000
 22 H      0.8380     1.0000     0.1620     0.9671     0.9671    -0.0000
 23 H      0.8504     1.0000     0.1496     0.9580     0.9580    -0.0000
 24 H      0.8505     1.0000     0.1495     0.9568     0.9568    -0.0000
 25 H      0.8602     1.0000     0.1398     0.9724     0.9724    -0.0000
 26 H      0.8196     1.0000     0.1804     0.9749     0.9749     0.0000
 27 H      0.8533     1.0000     0.1467     0.9735     0.9735     0.0000
 28 H      0.8637     1.0000     0.1363     0.9744     0.9744    -0.0000
 29 H      0.8436     1.0000     0.1564     0.9818     0.9818     0.0000
 30 H      0.8631     1.0000     0.1369     0.9754     0.9754    -0.0000
 31 H      0.8606     1.0000     0.1394     0.9722     0.9722     0.0000
 32 H      0.8351     1.0000     0.1649     0.9716     0.9716    -0.0000
 33 H      0.8362     1.0000     0.1638     0.9672     0.9672     0.0000
 34 H      0.8538     1.0000     0.1462     0.9582     0.9582     0.0000
 35 H      0.8497     1.0000     0.1503     0.9576     0.9576    -0.0000

  Mayer bond orders larger than 0.100000
B(  0-C ,  1-S ) :   1.0738 B(  0-C , 22-H ) :   0.9553 B(  0-C , 23-H ) :   0.9581 
B(  0-C , 24-H ) :   0.9576 B(  1-S ,  2-C ) :   1.1882 B(  2-C ,  3-C ) :   1.2867 
B(  2-C ,  7-C ) :   1.3220 B(  3-C ,  4-C ) :   1.4663 B(  3-C , 25-H ) :   0.9643 
B(  4-C ,  5-C ) :   1.3546 B(  4-C , 26-H ) :   0.9277 B(  5-C ,  6-C ) :   1.3770 
B(  5-C ,  8-C ) :   0.9616 B(  6-C ,  7-C ) :   1.4672 B(  6-C , 27-H ) :   0.9760 
B(  7-C , 28-H ) :   0.9758 B(  8-C ,  9-O ) :   1.0844 B(  8-C , 10-O ) :   2.1345 
B(  9-O , 11-O ) :   0.8197 B( 11-O , 12-C ) :   1.0893 B( 12-C , 13-C ) :   0.9620 
B( 12-C , 14-O ) :   2.0755 B( 13-C , 15-C ) :   1.3595 B( 13-C , 19-C ) :   1.3826 
B( 15-C , 16-C ) :   1.4833 B( 15-C , 29-H ) :   0.9632 B( 16-C , 17-C ) :   1.3026 
B( 16-C , 30-H ) :   0.9777 B( 17-C , 18-C ) :   1.2924 B( 17-C , 20-S ) :   1.2008 
B( 18-C , 19-C ) :   1.4753 B( 18-C , 31-H ) :   0.9588 B( 19-C , 32-H ) :   0.9548 
B( 20-S , 21-C ) :   1.0736 B( 21-C , 33-H ) :   0.9548 B( 21-C , 34-H ) :   0.9583 
B( 21-C , 35-H ) :   0.9579 

-------
TIMINGS
-------

Total SCF time: 0 days 0 hours 5 min 33 sec 

Total time                  ....     333.518 sec
Sum of individual times     ....     322.839 sec  ( 96.8%)

Fock matrix formation       ....     255.089 sec  ( 76.5%)
  Split-RI-J                ....      22.088 sec  (  8.7% of F)
  Chain of spheres X        ....     189.921 sec  ( 74.5% of F)
  XC integration            ....      23.551 sec  (  9.2% of F)
    Basis function eval.    ....       2.984 sec  ( 12.7% of XC)
    Density eval.           ....       8.555 sec  ( 36.3% of XC)
    XC-Functional eval.     ....       0.676 sec  (  2.9% of XC)
    XC-Potential eval.      ....       5.691 sec  ( 24.2% of XC)
Diagonalization             ....      25.546 sec  (  7.7%)
Density matrix formation    ....       1.264 sec  (  0.4%)
Population analysis         ....       4.007 sec  (  1.2%)
Initial guess               ....       0.925 sec  (  0.3%)
Orbital Transformation      ....       0.000 sec  (  0.0%)
Orbital Orthonormalization  ....       0.648 sec  (  0.2%)
DIIS solution               ....      23.875 sec  (  7.2%)
Grid generation             ....      12.134 sec  (  3.6%)

Maximum memory used throughout the entire SCF-calculation: 183.9 MB


-------------------------------------------------------------------------------
                          DFT DISPERSION CORRECTION                            
                                                                               
                              DFTD3 V3.1  Rev 1                                
                              USING zero damping                               
-------------------------------------------------------------------------------
The omegaB97X-D3 functional is recognized. Fit by Chai et al.
Active option DFTDOPT                   ...         3   

molecular C6(AA) [au] = 19259.511372 


            DFT-D V3
 parameters
 s6 scaling factor         :     1.0000 
 rs6 scaling factor        :     1.2810 
 s8 scaling factor         :     1.0000 
 rs8 scaling factor        :     1.0940 
 Damping factor alpha6     :    14.0000 
 Damping factor alpha8     :    16.0000 
 ad hoc parameters k1-k3   :    16.0000     1.3333    -4.0000 

 Edisp/kcal,au: -10.811898503637  -0.017229855161 
 E6   /kcal   :  -5.103234191 
 E8   /kcal   :  -5.708664312 
 % E8         :  52.799832615 

-------------------------   ----------------
Dispersion correction           -0.017229855
-------------------------   ----------------


-------------------------   --------------------
FINAL SINGLE POINT ENERGY     -1715.451818253734
-------------------------   --------------------

                                *** OPTIMIZATION RUN DONE ***

                            ***************************************
                            *     ORCA property calculations      *
                            ***************************************

                                    ---------------------
                                    Active property flags
                                    ---------------------
   (+) Dipole Moment


------------------------------------------------------------------------------
                       ORCA ELECTRIC PROPERTIES CALCULATION
------------------------------------------------------------------------------

Dipole Moment Calculation                       ... on
Quadrupole Moment Calculation                   ... off
Polarizability Calculation                      ... off
GBWName                                         ... /burg/berkelbach/users/eav2136/projects/peroxide_dissociation/05_range_separated_functional/wb97x-d-peroxide/wb97x-d-peroxide_opt.gbw
Electron density                                ... /burg/berkelbach/users/eav2136/projects/peroxide_dissociation/05_range_separated_functional/wb97x-d-peroxide/wb97x-d-peroxide_opt.scfp
The origin for moment calculation is the CENTER OF MASS  = (-0.246412,  3.465065  5.655659)

-------------
DIPOLE MOMENT
-------------
                                X             Y             Z
Electronic contribution:     -0.95865      -9.18419     -14.61516
Nuclear contribution   :      1.35433      10.35507      17.29838
                        -----------------------------------------
Total Dipole Moment    :      0.39568       1.17088       2.68322
                        -----------------------------------------
Magnitude (a.u.)       :      2.95419
Magnitude (Debye)      :      7.50894



--------------------
Rotational spectrum 
--------------------
 
Rotational constants in cm-1:     0.008993     0.005628     0.003839 
Rotational constants in MHz :   269.598814   168.730122   115.099509 

 Dipole components along the rotational axes: 
x,y,z [a.u.] :     1.955036     2.199026    -0.263305 
x,y,z [Debye]:     4.969306     5.589479    -0.669268 

 

Timings for individual modules:

Sum of individual times         ...     9231.955 sec (= 153.866 min)
GTO integral calculation        ...       92.837 sec (=   1.547 min)   1.0 %
SCF iterations                  ...     7838.118 sec (= 130.635 min)  84.9 %
SCF Gradient evaluation         ...     1299.580 sec (=  21.660 min)  14.1 %
Geometry relaxation             ...        1.419 sec (=   0.024 min)   0.0 %
                             ****ORCA TERMINATED NORMALLY****
TOTAL RUN TIME: 0 days 2 hours 35 minutes 7 seconds 492 msec
