Job execution start: Fri Apr 22 12:00:34 EDT 2022
Shared library path: /cm/shared/apps/cuda11.0/toolkit/11.0.3/compat:/burg/berkelbach/users/eav2136/builds/orca/5.0.3/orca:/cm/shared/apps/ucx/1.8.1/lib64:/cm/local/apps/cuda/libs/current/lib64:/cm/shared/apps/cuda11.0/toolkit/11.0.3/targets/x86_64-linux/lib:/cm/shared/apps/cuda11.0/visual-tools/11.0.3/libnvvp:/burg/opt/openmpi-4.1.1_ucx_cuda_11.0.3_support/lib:/cm/shared/apps/slurm/current/lib64/slurm:/cm/shared/apps/slurm/current/lib64
Slurm Job ID is: 1845722
Slurm Job name is: wb97x-v-radical-nmf_opt
g068

                                 *****************
                                 * O   R   C   A *
                                 *****************

                                            #,                                       
                                            ###                                      
                                            ####                                     
                                            #####                                    
                                            ######                                   
                                           ########,                                 
                                     ,,################,,,,,                         
                               ,,#################################,,                 
                          ,,##########################################,,             
                       ,#########################################, ''#####,          
                    ,#############################################,,   '####,        
                  ,##################################################,,,,####,       
                ,###########''''           ''''###############################       
              ,#####''   ,,,,##########,,,,          '''####'''          '####       
            ,##' ,,,,###########################,,,                        '##       
           ' ,,###''''                  '''############,,,                           
         ,,##''                                '''############,,,,        ,,,,,,###''
      ,#''                                            '''#######################'''  
     '                                                          ''''####''''         
             ,#######,   #######,   ,#######,      ##                                
            ,#'     '#,  ##    ##  ,#'     '#,    #''#        ######   ,####,        
            ##       ##  ##   ,#'  ##            #'  '#       #        #'  '#        
            ##       ##  #######   ##           ,######,      #####,   #    #        
            '#,     ,#'  ##    ##  '#,     ,#' ,#      #,         ##   #,  ,#        
             '#######'   ##     ##  '#######'  #'      '#     #####' # '####'        



                  #######################################################
                  #                        -***-                        #
                  #          Department of theory and spectroscopy      #
                  #    Directorship and core code : Frank Neese         #
                  #        Max Planck Institute fuer Kohlenforschung    #
                  #                Kaiser Wilhelm Platz 1               #
                  #                 D-45470 Muelheim/Ruhr               #
                  #                      Germany                        #
                  #                                                     #
                  #                  All rights reserved                #
                  #                        -***-                        #
                  #######################################################


                         Program Version 5.0.3 -  RELEASE  -


 With contributions from (in alphabetic order):
   Daniel Aravena         : Magnetic Suceptibility
   Michael Atanasov       : Ab Initio Ligand Field Theory (pilot matlab implementation)
   Alexander A. Auer      : GIAO ZORA, VPT2 properties, NMR spectrum
   Ute Becker             : Parallelization
   Giovanni Bistoni       : ED, misc. LED, open-shell LED, HFLD
   Martin Brehm           : Molecular dynamics
   Dmytro Bykov           : SCF Hessian
   Vijay G. Chilkuri      : MRCI spin determinant printing, contributions to CSF-ICE
   Dipayan Datta          : RHF DLPNO-CCSD density
   Achintya Kumar Dutta   : EOM-CC, STEOM-CC
   Dmitry Ganyushin       : Spin-Orbit,Spin-Spin,Magnetic field MRCI
   Miquel Garcia          : C-PCM and meta-GGA Hessian, CC/C-PCM, Gaussian charge scheme
   Yang Guo               : DLPNO-NEVPT2, F12-NEVPT2, CIM, IAO-localization
   Andreas Hansen         : Spin unrestricted coupled pair/coupled cluster methods
   Benjamin Helmich-Paris : MC-RPA, TRAH-SCF, COSX integrals
   Lee Huntington         : MR-EOM, pCC
   Robert Izsak           : Overlap fitted RIJCOSX, COSX-SCS-MP3, EOM
   Marcus Kettner         : VPT2
   Christian Kollmar      : KDIIS, OOCD, Brueckner-CCSD(T), CCSD density, CASPT2, CASPT2-K
   Simone Kossmann        : Meta GGA functionals, TD-DFT gradient, OOMP2, MP2 Hessian
   Martin Krupicka        : Initial AUTO-CI
   Lucas Lang             : DCDCAS
   Marvin Lechner         : AUTO-CI (C++ implementation), FIC-MRCC
   Dagmar Lenk            : GEPOL surface, SMD
   Dimitrios Liakos       : Extrapolation schemes; Compound Job, initial MDCI parallelization
   Dimitrios Manganas     : Further ROCIS development; embedding schemes
   Dimitrios Pantazis     : SARC Basis sets
   Anastasios Papadopoulos: AUTO-CI, single reference methods and gradients
   Taras Petrenko         : DFT Hessian,TD-DFT gradient, ASA, ECA, R-Raman, ABS, FL, XAS/XES, NRVS
   Peter Pinski           : DLPNO-MP2, DLPNO-MP2 Gradient
   Christoph Reimann      : Effective Core Potentials
   Marius Retegan         : Local ZFS, SOC
   Christoph Riplinger    : Optimizer, TS searches, QM/MM, DLPNO-CCSD(T), (RO)-DLPNO pert. Triples
   Tobias Risthaus        : Range-separated hybrids, TD-DFT gradient, RPA, STAB
   Michael Roemelt        : Original ROCIS implementation
   Masaaki Saitow         : Open-shell DLPNO-CCSD energy and density
   Barbara Sandhoefer     : DKH picture change effects
   Avijit Sen             : IP-ROCIS
   Kantharuban Sivalingam : CASSCF convergence, NEVPT2, FIC-MRCI
   Bernardo de Souza      : ESD, SOC TD-DFT
   Georgi Stoychev        : AutoAux, RI-MP2 NMR, DLPNO-MP2 response
   Willem Van den Heuvel  : Paramagnetic NMR
   Boris Wezisla          : Elementary symmetry handling
   Frank Wennmohs         : Technical directorship


 We gratefully acknowledge several colleagues who have allowed us to
 interface, adapt or use parts of their codes:
   Stefan Grimme, W. Hujo, H. Kruse, P. Pracht,  : VdW corrections, initial TS optimization,
                  C. Bannwarth, S. Ehlert          DFT functionals, gCP, sTDA/sTD-DF
   Ed Valeev, F. Pavosevic, A. Kumar             : LibInt (2-el integral package), F12 methods
   Garnet Chan, S. Sharma, J. Yang, R. Olivares  : DMRG
   Ulf Ekstrom                                   : XCFun DFT Library
   Mihaly Kallay                                 : mrcc  (arbitrary order and MRCC methods)
   Jiri Pittner, Ondrej Demel                    : Mk-CCSD
   Frank Weinhold                                : gennbo (NPA and NBO analysis)
   Christopher J. Cramer and Donald G. Truhlar   : smd solvation model
   Lars Goerigk                                  : TD-DFT with DH, B97 family of functionals
   V. Asgeirsson, H. Jonsson                     : NEB implementation
   FAccTs GmbH                                   : IRC, NEB, NEB-TS, DLPNO-Multilevel, CI-OPT
                                                   MM, QMMM, 2- and 3-layer-ONIOM, Crystal-QMMM,
                                                   LR-CPCM, SF, NACMEs, symmetry and pop. for TD-DFT,
                                                   nearIR, NL-DFT gradient (VV10), updates on ESD,
                                                   ML-optimized integration grids
   S Lehtola, MJT Oliveira, MAL Marques          : LibXC Library
   Liviu Ungur et al                             : ANISO software


 Your calculation uses the libint2 library for the computation of 2-el integrals
 For citations please refer to: http://libint.valeyev.net

 Your ORCA version has been built with support for libXC version: 5.1.0
 For citations please refer to: https://tddft.org/programs/libxc/

 This ORCA versions uses:
   CBLAS   interface :  Fast vector & matrix operations
   LAPACKE interface :  Fast linear algebra routines
   SCALAPACK package :  Parallel linear algebra routines
   Shared memory     :  Shared parallel matrices
   BLAS/LAPACK       :  OpenBLAS 0.3.15  USE64BITINT DYNAMIC_ARCH NO_AFFINITY SkylakeX SINGLE_THREADED
        Core in use  :  SkylakeX
   Copyright (c) 2011-2014, The OpenBLAS Project


Your calculation utilizes the DFT-NL dispersion correction.
Cite in your paper:
Vydrov, O. A.; Van Voorhis, T. J. Chem. Phys. 2010, 133, 244103
Hujo, W.; Grimme, S. J. Chem. Theory Comput. 2011, 7, 3866 
   

Your calculation utilizes the SMD solvation module
Please cite in your paper:
A.V. Marenich, C.J. Cramer, D.G. Truhlar J. Phys. Chem. B, 113, (2009), 6378 

================================================================================

----- Orbital basis set information -----
Your calculation utilizes the basis: def2-TZVP
   F. Weigend and R. Ahlrichs, Phys. Chem. Chem. Phys. 7, 3297 (2005).

----- AuxJ basis set information -----
Your calculation utilizes the auxiliary basis: def2/J
   F. Weigend, Phys. Chem. Chem. Phys. 8, 1057 (2006).

================================================================================
                                        WARNINGS
                       Please study these warnings very carefully!
================================================================================


WARNING: Geometry Optimization
  ===> : Switching off AutoStart
         For restart on a previous wavefunction, please use MOREAD

WARNING: Analytic gradients for DFT-NL dispersion can only be done using the self-consistent method,
  ===>   Switching to SCNL

WARNING: Self-consistent DFT-NL dispersion not compatible with AutoTRAH.
  ===>   Switching AutoTRAH off


INFO   : the flag for use of the SHARK integral package has been found!

================================================================================
                                       INPUT FILE
================================================================================
NAME = /burg/berkelbach/users/eav2136/projects/peroxide_dissociation/05_range_separated_functional/wb97x-v-radical-nmf/wb97x-v-radical-nmf_opt.inp
|  1> ! UKS wB97X-V def2-TZVP TIGHTSCF Opt CPCM PAL8
|  2> %maxcore 5000
|  3> %cpcm
|  4> smd true
|  5> SMDsolvent "N-METHYLFORMAMIDE"
|  6> end
|  7> * xyz 0 2
|  8>  C -0.07425707479814 6.45007760366319 3.54636897867849
|  9>  S 1.48979584793712 6.08048225687873 2.75598260255209
| 10>  C 1.14936654141856 4.63662227087222 1.83369205968326
| 11>  C -0.09136557109480 4.00305286554088 1.79338352444578
| 12>  C -0.25826928718407 2.84269542505768 1.05936282240646
| 13>  C 0.80050967676942 2.30271389692801 0.33923873907232
| 14>  C 2.02875697338567 2.96040825022008 0.34201900047512
| 15>  C 2.20764771123846 4.10330343094754 1.09121055149825
| 16>  C 0.66254428710301 1.09941809961861 -0.50690159852297
| 17>  O 0.00000000000000 0.00000000000000 0.00000000000000
| 18>  O 1.06713866538631 0.98717129960580 -1.62357736506780
| 19>  H 0.10416325535368 7.34607684664392 4.14087383255362
| 20>  H -0.38882275224257 5.64387294862163 4.21002028523424
| 21>  H -0.85323854703301 6.66443357654391 2.81385647784552
| 22>  H -0.93700004363157 4.40513362395569 2.33421606140266
| 23>  H -1.23507439683237 2.37497021944690 1.02749021968162
| 24>  H 2.84544686618639 2.55882587909200 -0.24576673820719
| 25>  H 3.17295340310622 4.59670965109571 1.10248346369500
| 26> *
| 27> 
| 28>                          ****END OF INPUT****
================================================================================

                       *****************************
                       * Geometry Optimization Run *
                       *****************************

Geometry optimization settings:
Update method            Update   .... BFGS
Choice of coordinates    CoordSys .... Z-matrix Internals
Initial Hessian          InHess   .... Almoef's Model

Convergence Tolerances:
Energy Change            TolE     ....  5.0000e-06 Eh
Max. Gradient            TolMAXG  ....  3.0000e-04 Eh/bohr
RMS Gradient             TolRMSG  ....  1.0000e-04 Eh/bohr
Max. Displacement        TolMAXD  ....  4.0000e-03 bohr
RMS Displacement         TolRMSD  ....  2.0000e-03 bohr
Strict Convergence                ....  False
------------------------------------------------------------------------------
                        ORCA OPTIMIZATION COORDINATE SETUP
------------------------------------------------------------------------------

The optimization will be done in new redundant internal coordinates
Making redundant internal coordinates   ...  (new redundants) done
Evaluating the initial hessian          ...  (Almloef) done
Evaluating the coordinates              ...  done
Calculating the B-matrix                .... done
Calculating the G-matrix                .... done
Diagonalizing the G-matrix              .... done
Small eigenvalue found = 1.379e-02
The first mode is                       ....   31
The number of degrees of freedom        ....   48

    -----------------------------------------------------------------
                    Redundant Internal Coordinates


    -----------------------------------------------------------------
         Definition                    Initial Value    Approx d2E/dq
    -----------------------------------------------------------------
      1. B(S   1,C   0)                  1.7910         0.386175   
      2. B(C   2,S   1)                  1.7468         0.454240   
      3. B(C   3,C   2)                  1.3937         0.616320   
      4. B(C   4,C   3)                  1.3831         0.640745   
      5. B(C   5,C   4)                  1.3897         0.625563   
      6. B(C   6,C   5)                  1.3933         0.617369   
      7. B(C   7,C   2)                  1.3985         0.605696   
      8. B(C   7,C   6)                  1.3782         0.652421   
      9. B(C   8,C   5)                  1.4775         0.453096   
     10. B(O   9,C   8)                  1.3801         0.580356   
     11. B(O  10,C   8)                  1.1930         1.153901   
     12. B(H  11,C   0)                  1.0900         0.360109   
     13. B(H  12,C   0)                  1.0906         0.359342   
     14. B(H  13,C   0)                  1.0906         0.359351   
     15. B(H  14,C   3)                  1.0813         0.371759   
     16. B(H  15,C   4)                  1.0835         0.368828   
     17. B(H  16,C   6)                  1.0834         0.368946   
     18. B(H  17,C   7)                  1.0842         0.367916   
     19. A(S   1,C   0,H  13)          111.5879         0.342618   
     20. A(S   1,C   0,H  12)          111.5859         0.342616   
     21. A(H  12,C   0,H  13)          110.3658         0.290648   
     22. A(H  11,C   0,H  12)          108.8436         0.290744   
     23. A(S   1,C   0,H  11)          105.5091         0.342738   
     24. A(H  11,C   0,H  13)          108.7656         0.290746   
     25. A(C   0,S   1,C   2)          103.4970         0.419917   
     26. A(S   1,C   2,C   7)          116.6202         0.431369   
     27. A(C   3,C   2,C   7)          119.0102         0.431786   
     28. A(S   1,C   2,C   3)          124.3692         0.432719   
     29. A(C   2,C   3,C   4)          120.2744         0.436178   
     30. A(C   4,C   3,H  14)          118.8821         0.356807   
     31. A(C   2,C   3,H  14)          120.8433         0.354461   
     32. A(C   5,C   4,H  15)          120.2581         0.354880   
     33. A(C   3,C   4,H  15)          119.1145         0.356327   
     34. A(C   3,C   4,C   5)          120.6005         0.437350   
     35. A(C   6,C   5,C   8)          117.8994         0.410112   
     36. A(C   4,C   5,C   8)          122.8259         0.411072   
     37. A(C   4,C   5,C   6)          119.1567         0.434432   
     38. A(C   7,C   6,H  16)          120.2952         0.357442   
     39. A(C   5,C   6,H  16)          119.2412         0.354107   
     40. A(C   5,C   6,C   7)          120.4618         0.437734   
     41. A(C   6,C   7,H  17)          119.9087         0.357272   
     42. A(C   2,C   7,H  17)          119.6508         0.352797   
     43. A(C   2,C   7,C   6)          120.4398         0.436231   
     44. A(O   9,C   8,O  10)          115.5727         0.473849   
     45. A(C   5,C   8,O  10)          125.5219         0.455899   
     46. A(C   5,C   8,O   9)          118.8999         0.403044   
     47. D(C   2,S   1,C   0,H  12)     61.4721         0.003898   
     48. D(C   2,S   1,C   0,H  11)    179.5234         0.003898   
     49. D(C   2,S   1,C   0,H  13)    -62.5176         0.003898   
     50. D(C   7,C   2,S   1,C   0)    179.8441         0.004531   
     51. D(C   3,C   2,S   1,C   0)      0.0768         0.004531   
     52. D(C   4,C   3,C   2,S   1)   -178.3900         0.026266   
     53. D(H  14,C   3,C   2,C   7)   -178.3097         0.026266   
     54. D(H  14,C   3,C   2,S   1)      1.4524         0.026266   
     55. D(C   4,C   3,C   2,C   7)      1.8479         0.026266   
     56. D(H  15,C   4,C   3,H  14)      1.1825         0.028529   
     57. D(H  15,C   4,C   3,C   2)   -178.9720         0.028529   
     58. D(C   5,C   4,C   3,H  14)    179.3028         0.028529   
     59. D(C   5,C   4,C   3,C   2)     -0.8517         0.028529   
     60. D(C   6,C   5,C   4,H  15)    176.7603         0.027109   
     61. D(C   6,C   5,C   4,C   3)     -1.3385         0.027109   
     62. D(C   8,C   5,C   4,H  15)      0.7946         0.027109   
     63. D(C   8,C   5,C   4,C   3)   -177.3042         0.027109   
     64. D(H  16,C   6,C   5,C   8)     -1.7852         0.026361   
     65. D(H  16,C   6,C   5,C   4)   -177.9495         0.026361   
     66. D(C   7,C   6,C   5,C   8)    178.6982         0.026361   
     67. D(C   7,C   6,C   5,C   4)      2.5338         0.026361   
     68. D(H  17,C   7,C   6,H  16)     -0.7379         0.029652   
     69. D(H  17,C   7,C   6,C   5)    178.7736         0.029652   
     70. D(C   2,C   7,C   6,H  16)    178.9472         0.029652   
     71. D(C   2,C   7,C   6,C   5)     -1.5413         0.029652   
     72. D(H  17,C   7,C   2,C   3)    179.0287         0.025317   
     73. D(H  17,C   7,C   2,S   1)     -0.7516         0.025317   
     74. D(C   6,C   7,C   2,C   3)     -0.6572         0.025317   
     75. D(C   6,C   7,C   2,S   1)    179.5625         0.025317   
     76. D(O   9,C   8,C   5,C   6)    137.7156         0.013991   
     77. D(O   9,C   8,C   5,C   4)    -46.2708         0.013991   
     78. D(O  10,C   8,C   5,C   6)    -43.1749         0.013991   
     79. D(O  10,C   8,C   5,C   4)    132.8388         0.013991   
    -----------------------------------------------------------------

Number of atoms                         .... 18
Number of degrees of freedom            .... 79

         *************************************************************
         *                GEOMETRY OPTIMIZATION CYCLE   1            *
         *************************************************************
---------------------------------
CARTESIAN COORDINATES (ANGSTROEM)
---------------------------------
  C     -0.074257    6.450078    3.546369
  S      1.489796    6.080482    2.755983
  C      1.149367    4.636622    1.833692
  C     -0.091366    4.003053    1.793384
  C     -0.258269    2.842695    1.059363
  C      0.800510    2.302714    0.339239
  C      2.028757    2.960408    0.342019
  C      2.207648    4.103303    1.091211
  C      0.662544    1.099418   -0.506902
  O      0.000000    0.000000    0.000000
  O      1.067139    0.987171   -1.623577
  H      0.104163    7.346077    4.140874
  H     -0.388823    5.643873    4.210020
  H     -0.853239    6.664434    2.813856
  H     -0.937000    4.405134    2.334216
  H     -1.235074    2.374970    1.027490
  H      2.845447    2.558826   -0.245767
  H      3.172953    4.596710    1.102483

----------------------------
CARTESIAN COORDINATES (A.U.)
----------------------------
  NO LB      ZA    FRAG     MASS         X           Y           Z
   0 C     6.0000    0    12.011   -0.140326   12.188880    6.701666
   1 S    16.0000    0    32.060    2.815306   11.490446    5.208052
   2 C     6.0000    0    12.011    2.171988    8.761946    3.465176
   3 C     6.0000    0    12.011   -0.172656    7.564674    3.389004
   4 C     6.0000    0    12.011   -0.488058    5.371916    2.001906
   5 C     6.0000    0    12.011    1.512744    4.351499    0.641068
   6 C     6.0000    0    12.011    3.833795    5.594361    0.646322
   7 C     6.0000    0    12.011    4.171850    7.754120    2.062089
   8 C     6.0000    0    12.011    1.252027    2.077599   -0.957905
   9 O     8.0000    0    15.999    0.000000    0.000000    0.000000
  10 O     8.0000    0    15.999    2.016600    1.865483   -3.068117
  11 H     1.0000    0     1.008    0.196840   13.882073    7.825117
  12 H     1.0000    0     1.008   -0.734769   10.665374    7.955785
  13 H     1.0000    0     1.008   -1.612387   12.593954    5.317418
  14 H     1.0000    0     1.008   -1.770673    8.324496    4.411029
  15 H     1.0000    0     1.008   -2.333952    4.488043    1.941675
  16 H     1.0000    0     1.008    5.377115    4.835480   -0.464432
  17 H     1.0000    0     1.008    5.996013    8.686522    2.083392

--------------------------------
INTERNAL COORDINATES (ANGSTROEM)
--------------------------------
 C      0   0   0     0.000000000000     0.00000000     0.00000000
 S      1   0   0     1.790969818017     0.00000000     0.00000000
 C      2   1   0     1.746780929995   103.49703222     0.00000000
 C      3   2   1     1.393718459520   124.36918170     0.07682297
 C      4   3   2     1.383138688329   120.27439762   181.60997218
 C      5   4   3     1.389666017657   120.60050203   359.14829865
 C      6   5   4     1.393255545064   119.15672375   358.66151732
 C      7   6   5     1.378223229504   120.46180539     2.53383799
 C      6   5   4     1.477466986255   122.82593719   182.69580816
 O      9   6   5     1.380084896203   118.89987975   313.72924568
 O      9   6   5     1.193004913083   125.52191253   132.83876530
 H      1   2   3     1.089992880213   105.50910599   179.52342869
 H      1   2   3     1.090573504139   111.58592171    61.47211732
 H      1   2   3     1.090566449636   111.58785041   297.48242808
 H      4   3   2     1.081326236832   120.84329981     1.45240478
 H      5   4   3     1.083480942612   119.11451180   181.02803207
 H      7   6   5     1.083394137146   119.24119758   182.05045369
 H      8   7   6     1.084154903776   119.90872766   178.77361985

---------------------------
INTERNAL COORDINATES (A.U.)
---------------------------
 C      0   0   0     0.000000000000     0.00000000     0.00000000
 S      1   0   0     3.384442470171     0.00000000     0.00000000
 C      2   1   0     3.300937573646   103.49703222     0.00000000
 C      3   2   1     2.633746196283   124.36918170     0.07682297
 C      4   3   2     2.613753326172   120.27439762   181.60997218
 C      5   4   3     2.626088190988   120.60050203   359.14829865
 C      6   5   4     2.632871414738   119.15672375   358.66151732
 C      7   6   5     2.604464455171   120.46180539     2.53383799
 C      6   5   4     2.792007975932   122.82593719   182.69580816
 O      9   6   5     2.607982495384   118.89987975   313.72924568
 O      9   6   5     2.254452562149   125.52191253   132.83876530
 H      1   2   3     2.059788031526   105.50910599   179.52342869
 H      1   2   3     2.060885251733   111.58592171    61.47211732
 H      1   2   3     2.060871920655   111.58785041   297.48242808
 H      4   3   2     2.043410449036   120.84329981     1.45240478
 H      5   4   3     2.047482252859   119.11451180   181.02803207
 H      7   6   5     2.047318214302   119.24119758   182.05045369
 H      8   7   6     2.048755854885   119.90872766   178.77361985

---------------------
BASIS SET INFORMATION
---------------------
There are 4 groups of distinct atoms

 Group   1 Type C   : 11s6p2d1f contracted to 5s3p2d1f pattern {62111/411/11/1}
 Group   2 Type S   : 14s9p3d1f contracted to 5s5p2d1f pattern {73211/51111/21/1}
 Group   3 Type O   : 11s6p2d1f contracted to 5s3p2d1f pattern {62111/411/11/1}
 Group   4 Type H   : 5s1p contracted to 3s1p pattern {311/1}

Atom   0C    basis set group =>   1
Atom   1S    basis set group =>   2
Atom   2C    basis set group =>   1
Atom   3C    basis set group =>   1
Atom   4C    basis set group =>   1
Atom   5C    basis set group =>   1
Atom   6C    basis set group =>   1
Atom   7C    basis set group =>   1
Atom   8C    basis set group =>   1
Atom   9O    basis set group =>   3
Atom  10O    basis set group =>   3
Atom  11H    basis set group =>   4
Atom  12H    basis set group =>   4
Atom  13H    basis set group =>   4
Atom  14H    basis set group =>   4
Atom  15H    basis set group =>   4
Atom  16H    basis set group =>   4
Atom  17H    basis set group =>   4
---------------------------------
AUXILIARY/J BASIS SET INFORMATION
---------------------------------
There are 4 groups of distinct atoms

 Group   1 Type C   : 12s5p4d2f1g contracted to 6s4p3d1f1g pattern {711111/2111/211/2/1}
 Group   2 Type S   : 14s5p5d2f1g contracted to 8s4p3d1f1g pattern {71111111/2111/311/2/1}
 Group   3 Type O   : 12s5p4d2f1g contracted to 6s4p3d1f1g pattern {711111/2111/211/2/1}
 Group   4 Type H   : 5s2p1d contracted to 3s1p1d pattern {311/2/1}

Atom   0C    basis set group =>   1
Atom   1S    basis set group =>   2
Atom   2C    basis set group =>   1
Atom   3C    basis set group =>   1
Atom   4C    basis set group =>   1
Atom   5C    basis set group =>   1
Atom   6C    basis set group =>   1
Atom   7C    basis set group =>   1
Atom   8C    basis set group =>   1
Atom   9O    basis set group =>   3
Atom  10O    basis set group =>   3
Atom  11H    basis set group =>   4
Atom  12H    basis set group =>   4
Atom  13H    basis set group =>   4
Atom  14H    basis set group =>   4
Atom  15H    basis set group =>   4
Atom  16H    basis set group =>   4
Atom  17H    basis set group =>   4


           ************************************************************
           *        Program running with 8 parallel MPI-processes     *
           *              working on a common directory               *
           ************************************************************
------------------------------------------------------------------------------
                           ORCA GTO INTEGRAL CALCULATION
                           -- RI-GTO INTEGRALS CHOSEN --
------------------------------------------------------------------------------
------------------------------------------------------------------------------
                   ___                                                        
                  /   \      - P O W E R E D   B Y -                         
                 /     \                                                     
                 |  |  |   _    _      __       _____    __    __             
                 |  |  |  | |  | |    /  \     |  _  \  |  |  /  |          
                  \  \/   | |  | |   /    \    | | | |  |  | /  /          
                 / \  \   | |__| |  /  /\  \   | |_| |  |  |/  /          
                |  |  |   |  __  | /  /__\  \  |    /   |      \           
                |  |  |   | |  | | |   __   |  |    \   |  |\   \          
                \     /   | |  | | |  |  |  |  | |\  \  |  | \   \       
                 \___/    |_|  |_| |__|  |__|  |_| \__\ |__|  \__/        
                                                                              
                      - O R C A' S   B I G   F R I E N D -                    
                                      &                                       
                       - I N T E G R A L  F E E D E R -                       
                                                                              
 v1 FN, 2020, v2 2021                                                         
------------------------------------------------------------------------------


Reading SHARK input file /burg/berkelbach/users/eav2136/projects/peroxide_dissociation/05_range_separated_functional/wb97x-v-radical-nmf/wb97x-v-radical-nmf_opt.SHARKINP.tmp ... ok
----------------------
SHARK INTEGRAL PACKAGE
----------------------

Number of atoms                             ...     18
Number of basis functions                   ...    389
Number of shells                            ...    151
Maximum angular momentum                    ...      3
Integral batch strategy                     ... SHARK/LIBINT Hybrid
RI-J (if used) integral strategy            ... SPLIT-RIJ (Revised 2003 algorithm where possible)
Printlevel                                  ...      1
Contraction scheme used                     ... SEGMENTED contraction
Coulomb Range Separation                    ... NOT USED
Exchange Range Separation                   ... Long Range
   Mu parameter                             ...  0.300000
   Scaling (regular/separated)              ...  0.167000  0.833000
Finite Nucleus Model                        ... NOT USED
Auxiliary Coulomb fitting basis             ... AVAILABLE
   # of basis functions in Aux-J            ...    618
   # of shells in Aux-J                     ...    202
   Maximum angular momentum in Aux-J        ...      4
Auxiliary J/K fitting basis                 ... NOT available
Auxiliary Correlation fitting basis         ... NOT available
Auxiliary 'external' fitting basis          ... NOT available
Integral threshold                          ...     2.500000e-11
Primitive cut-off                           ...     2.500000e-12
Primitive pair pre-selection threshold      ...     2.500000e-12

Calculating pre-screening integrals         ... done (  0.0 sec) Dimension = 151
Organizing shell pair data                  ... done (  0.1 sec)
Shell pair information
Total number of shell pairs                 ...     11476
Shell pairs after pre-screening             ...      9496
Total number of primitive shell pairs       ...     36592
Primitive shell pairs kept                  ...     21620
          la=0 lb=0:   2303 shell pairs
          la=1 lb=0:   2678 shell pairs
          la=1 lb=1:    796 shell pairs
          la=2 lb=0:   1383 shell pairs
          la=2 lb=1:    801 shell pairs
          la=2 lb=2:    220 shell pairs
          la=3 lb=0:    667 shell pairs
          la=3 lb=1:    390 shell pairs
          la=3 lb=2:    204 shell pairs
          la=3 lb=3:     54 shell pairs

Calculating one electron integrals          ... done (  0.0 sec)
Calculating RI/J V-Matrix + Cholesky decomp.... done (  0.0 sec)
Calculating Nuclear repulsion               ... done (  0.0 sec) ENN=    631.489285915085 Eh

SHARK setup successfully completed in   0.4 seconds

Maximum memory used throughout the entire GTOINT-calculation: 24.2 MB


           ************************************************************
           *        Program running with 8 parallel MPI-processes     *
           *              working on a common directory               *
           ************************************************************
-------------------------------------------------------------------------------
                                 ORCA SCF
-------------------------------------------------------------------------------

------------
SCF SETTINGS
------------
Hamiltonian:
 Density Functional     Method          .... DFT(GTOs)
 Exchange Functional    Exchange        .... WB97X-V
 Correlation Functional Correlation     .... WB97X-V
 Gradients option       PostSCFGGA      .... off
 Hybrid DFT is turned on
   Fraction HF Exchange ScalHFX         ....  0.167000
   Scaling of DF-GGA-X  ScalDFX         ....  0.000000
   Scaling of DF-GGA-C  ScalDFC         ....  1.000000
   Scaling of DF-LDA-C  ScalLDAC        ....  1.000000
   Perturbative correction              ....  0.000000
   Density functional embedding theory  .... OFF
 Long-range corrected/Screened/Range-Separated Hybrid DFT is turned on
   Amount of maximum screened exact exchange              ....  0.833000
   Range separation parameter mu (erf(mu*r12)/r12)        ....  0.300000
   NL short-range parameter             ....  6.000000
   NL long-range parameter              ....  0.010000
 RI-approximation to the Coulomb term is turned on
   Number of AuxJ basis functions       .... 618
   RIJ-COSX (HFX calculated with COS-X)).... on


General Settings:
 Integral files         IntName         .... /burg/berkelbach/users/eav2136/projects/peroxide_dissociation/05_range_separated_functional/wb97x-v-radical-nmf/wb97x-v-radical-nmf_opt
 Hartree-Fock type      HFTyp           .... UHF
 Total Charge           Charge          ....    0
 Multiplicity           Mult            ....    2
 Number of Electrons    NEL             ....   87
 Basis Dimension        Dim             ....  389
 Nuclear Repulsion      ENuc            ....    631.4892859151 Eh

Convergence Acceleration:
 DIIS                   CNVDIIS         .... on
   Start iteration      DIISMaxIt       ....    12
   Startup error        DIISStart       ....  0.200000
   # of expansion vecs  DIISMaxEq       ....     5
   Bias factor          DIISBfac        ....   1.050
   Max. coefficient     DIISMaxC        ....  10.000
 Trust-Rad. Augm. Hess. CNVTRAH         .... off
 SOSCF                  CNVSOSCF        .... off
 Level Shifting         CNVShift        .... on
   Level shift para.    LevelShift      ....    0.2500
   Turn off err/grad.   ShiftErr        ....    0.0010
 Zerner damping         CNVZerner       .... off
 Static damping         CNVDamp         .... on
   Fraction old density DampFac         ....    0.7000
   Max. Damping (<1)    DampMax         ....    0.9800
   Min. Damping (>=0)   DampMin         ....    0.0000
   Turn off err/grad.   DampErr         ....    0.1000
 Fernandez-Rico         CNVRico         .... off

SCF Procedure:
 Maximum # iterations   MaxIter         ....   125
 SCF integral mode      SCFMode         .... Direct
   Integral package                     .... SHARK and LIBINT hybrid scheme
 Reset frequency        DirectResetFreq ....    20
 Integral Threshold     Thresh          ....  2.500e-11 Eh
 Primitive CutOff       TCut            ....  2.500e-12 Eh

Convergence Tolerance:
 Convergence Check Mode ConvCheckMode   .... Total+1el-Energy
 Convergence forced     ConvForced      .... 0
 Energy Change          TolE            ....  1.000e-08 Eh
 1-El. energy change                    ....  1.000e-05 Eh
 DIIS Error             TolErr          ....  5.000e-07


Diagonalization of the overlap matrix:
Smallest eigenvalue                        ... 7.498e-06
Time for diagonalization                   ...    0.021 sec
Threshold for overlap eigenvalues          ... 1.000e-08
Number of eigenvalues below threshold      ... 0
Time for construction of square roots      ...    0.028 sec
Total time needed                          ...    0.049 sec

Time for model grid setup =    0.100 sec

------------------------------
INITIAL GUESS: MODEL POTENTIAL
------------------------------
Loading Hartree-Fock densities                     ... done
Calculating cut-offs                               ... done
Initializing the effective Hamiltonian             ... done
Setting up the integral package (SHARK)            ... done
Starting the Coulomb interaction                   ... done (   0.1 sec)
Reading the grid                                   ... done
Mapping shells                                     ... done
Starting the XC term evaluation                    ... done (   0.1 sec)
  promolecular density results
     # of electrons  =     87.002319788
     EX              =    -58.759239701
     EC              =     -3.795441001
     EX+EC           =    -62.554680701
Transforming the Hamiltonian                       ... done (   0.0 sec)
Diagonalizing the Hamiltonian                      ... done (   0.0 sec)
Back transforming the eigenvectors                 ... done (   0.0 sec)
Now organizing SCF variables                       ... done
                      ------------------
                      INITIAL GUESS DONE (   0.4 sec)
                      ------------------
-------------------
DFT GRID GENERATION
-------------------

General Integration Accuracy     IntAcc      ... 4.388
Radial Grid Type                 RadialGrid  ... OptM3 with GC (2021)
Angular Grid (max. ang.)         AngularGrid ... 4 (Lebedev-302)
Angular grid pruning method      GridPruning ... 4 (adaptive)
Weight generation scheme         WeightScheme... Becke
Basis function cutoff            BFCut       ... 1.0000e-11
Integration weight cutoff        WCut        ... 1.0000e-14
Angular grids for H and He will be reduced by one unit
Partially contracted basis set               ... off
Rotationally invariant grid construction     ... off

Total number of grid points                  ...    90151
Total number of batches                      ...     1417
Average number of points per batch           ...       63
Average number of grid points per atom       ...     5008

------------------
NL GRID GENERATION
------------------

General Integration Accuracy     IntAcc      ... 4.004
Radial Grid Type                 RadialGrid  ... OptM3 with GC (2021)
Angular Grid (max. ang.)         AngularGrid ... 2 (Lebedev-110)
Angular grid pruning method      GridPruning ... 4 (adaptive)
Weight generation scheme         WeightScheme... Becke
Basis function cutoff            BFCut       ... 1.0000e-10
Integration weight cutoff        WCut        ... 1.0000e-14
Angular grids for H and He will be reduced by one unit
Partially contracted basis set               ... off
Rotationally invariant grid construction     ... off

Total number of grid points                  ...    29042
Total number of batches                      ...      463
Average number of points per batch           ...       62
Average number of grid points per atom       ...     1613
Time for grid setup =    0.723 sec

--------------------
COSX GRID GENERATION
--------------------

GRIDX 1
-------
General Integration Accuracy     IntAcc      ... 3.816
Radial Grid Type                 RadialGrid  ... OptM3 with GC (2021)
Angular Grid (max. ang.)         AngularGrid ... 1 (Lebedev-50)
Angular grid pruning method      GridPruning ... 4 (adaptive)
Weight generation scheme         WeightScheme... Becke
Basis function cutoff            BFCut       ... 1.0000e-11
Integration weight cutoff        WCut        ... 1.0000e-14
Angular grids for H and He will be reduced by one unit
Partially contracted basis set               ... on
Rotationally invariant grid construction     ... off

Total number of grid points                  ...    11402
Total number of batches                      ...      186
Average number of points per batch           ...       61
Average number of grid points per atom       ...      633
UseSFitting                                  ... on

GRIDX 2
-------
General Integration Accuracy     IntAcc      ... 4.020
Radial Grid Type                 RadialGrid  ... OptM3 with GC (2021)
Angular Grid (max. ang.)         AngularGrid ... 2 (Lebedev-110)
Angular grid pruning method      GridPruning ... 4 (adaptive)
Weight generation scheme         WeightScheme... Becke
Basis function cutoff            BFCut       ... 1.0000e-11
Integration weight cutoff        WCut        ... 1.0000e-14
Angular grids for H and He will be reduced by one unit
Partially contracted basis set               ... on
Rotationally invariant grid construction     ... off

Total number of grid points                  ...    25317
Total number of batches                      ...      406
Average number of points per batch           ...       62
Average number of grid points per atom       ...     1406
UseSFitting                                  ... on

GRIDX 3
-------
General Integration Accuracy     IntAcc      ... 4.338
Radial Grid Type                 RadialGrid  ... OptM3 with GC (2021)
Angular Grid (max. ang.)         AngularGrid ... 3 (Lebedev-194)
Angular grid pruning method      GridPruning ... 4 (adaptive)
Weight generation scheme         WeightScheme... Becke
Basis function cutoff            BFCut       ... 1.0000e-11
Integration weight cutoff        WCut        ... 1.0000e-14
Angular grids for H and He will be reduced by one unit
Partially contracted basis set               ... on
Rotationally invariant grid construction     ... off

Total number of grid points                  ...    56227
Total number of batches                      ...      886
Average number of points per batch           ...       63
Average number of grid points per atom       ...     3124
UseSFitting                                  ... on

Time for X-Grid setup             =    0.643 sec


--------------------
CPCM SOLVATION MODEL
--------------------
CPCM parameters:
  Epsilon                                         ...     181.5600
  Refrac                                          ...       1.4319
  Rsolv                                           ...       1.3000
  Surface type                                    ... GAUSSIAN VDW
  Epsilon function type                           ...         CPCM
Solvent:                                     ... N-METHYLFORMAMIDE
SMD-CDS solvent descriptors:
  Soln                                       ...    1.4319
  Soln25                                     ...    1.4310
  Sola                                       ...    0.4000
  Solb                                       ...    0.5500
  Solg                                       ...   55.4400
  Solc                                       ...    0.0000
  Solh                                       ...    0.0000
Radii:
 Radius for C  used is    3.4960 Bohr (=   1.8500 Ang.)
 Radius for S  used is    4.7054 Bohr (=   2.4900 Ang.)
 Radius for O  used is    2.9744 Bohr (=   1.5740 Ang.)
 Radius for H  used is    2.2677 Bohr (=   1.2000 Ang.)
Calculating surface                               ...        done! (  0.0s)
GEPOL surface points                              ...         1075
GEPOL Volume                                      ...    1197.3397
GEPOL Surface-area                                ...     688.6869
Calculating surface distance matrix               ...        done! (  0.0s)
Performing Cholesky decomposition & store         ...        done! (  0.1s)
Overall time for CPCM initialization              ...                 0.1s
--------------
SCF ITERATIONS
--------------
ITER       Energy         Delta-E        Max-DP      RMS-DP      [F,P]     Damp
               ***  Starting incremental Fock matrix formation  ***
  0   -857.4441635180   0.000000000000 0.07142918  0.00094324  0.1666259 0.7000
  1   -857.5188617523  -0.074698234307 0.07027874  0.00089090  0.1167040 0.7000
                               ***Turning on DIIS***
  2   -857.5601719802  -0.041310227986 0.21051358  0.00238421  0.0816724 0.0000
  3   -857.6339419885  -0.073770008302 0.05255247  0.00037784  0.0267792 0.0000
  4   -857.6439117585  -0.009969770000 0.01554360  0.00012663  0.0042967 0.0000
  5   -857.6449013700  -0.000989611448 0.01314797  0.00008097  0.0023761 0.0000
  6   -857.6453821085  -0.000480738536 0.00220717  0.00003777  0.0016867 0.0000
  7   -857.6456992330  -0.000317124426 0.00140803  0.00002456  0.0011308 0.0000
  8   -857.6458957765  -0.000196543522 0.00309771  0.00003360  0.0007522 0.0000
               *** Restarting incremental Fock matrix formation ***
                                   *** Resetting DIIS ***
  9   -857.6460436447  -0.000147868257 0.00212567  0.00001544  0.0006244 0.0000
 10   -857.6460677449  -0.000024100172 0.00117907  0.00000861  0.0007700 0.0000
 11   -857.6460789868  -0.000011241876 0.00181042  0.00001296  0.0003132 0.0000
 12   -857.6460966617  -0.000017674961 0.00129062  0.00000843  0.0002128 0.0000
 13   -857.6461014735  -0.000004811749 0.00059023  0.00000353  0.0001748 0.0000
 14   -857.6461024514  -0.000000977886 0.00021671  0.00000171  0.0000779 0.0000
 15   -857.6461027563  -0.000000304910 0.00033074  0.00000183  0.0000559 0.0000
 16   -857.6461029460  -0.000000189700 0.00023717  0.00000141  0.0000322 0.0000
 17   -857.6461030434  -0.000000097373 0.00003781  0.00000052  0.0000273 0.0000
 18   -857.6461030749  -0.000000031534 0.00011272  0.00000082  0.0000155 0.0000
 19   -857.6461031054  -0.000000030457 0.00003320  0.00000044  0.0000106 0.0000
 20   -857.6461031147  -0.000000009392 0.00008495  0.00000061  0.0000070 0.0000
 21   -857.6461031305  -0.000000015775 0.00012885  0.00000088  0.0000040 0.0000
 22   -857.6461031403  -0.000000009805 0.00009265  0.00000071  0.0000022 0.0000
                 **** Energy Check signals convergence ****

               *****************************************************
               *                     SUCCESS                       *
               *           SCF CONVERGED AFTER  23 CYCLES          *
               *****************************************************

Old exchange energy                            =    -25.676927788 Eh
New exchange energy                            =    -25.676913380 Eh
Exchange energy change after final integration =      0.000014409 Eh
Total energy after final integration           =   -857.646088724 Eh
Final COS-X integration done in                =     9.829 sec

SMD CDS free energy correction energy :                 3.23713     Kcal/mol
Total Energy after SMD CDS correction =              -857.640930032 Eh

----------------
TOTAL SCF ENERGY
----------------

Total Energy       :         -857.64093003 Eh          -23337.59617 eV

Components:
Nuclear Repulsion  :          631.48928592 Eh           17183.69707 eV
Electronic Energy  :        -1489.13021595 Eh          -40521.29324 eV
One Electron Energy:        -2425.70850660 Eh          -66006.88419 eV
Two Electron Energy:          936.57829066 Eh           25485.59095 eV
Max COSX asymmetry :            0.00000037 Eh               0.00001 eV
CPCM Dielectric    :           -0.11486760 Eh              -3.12571 eV
SMD CDS (Gcds)     :            0.00515869 Eh               0.14038 eV

Virial components:
Potential Energy   :        -1712.84546639 Eh          -46608.89469 eV
Kinetic Energy     :          855.20453636 Eh           23271.29852 eV
Virial Ratio       :            2.00284890


DFT components:
N(Alpha)           :       44.000013101814 electrons
N(Beta)            :       43.000014201296 electrons
N(Total)           :       87.000027303110 electrons
E(X)               :      -59.596497236465 Eh       
E(C)               :       -3.812606818209 Eh       
NL Energy, E(C,NL) :        0.336212235971 Eh       
E(XC)              :      -63.072891818703 Eh       
DFET-embed. en.    :        0.000000000000 Eh       
CPCM Solvation Model Properties:
Surface-charge          :           -0.04263012
Charge-correction       :           -0.00184104 Eh              -0.05010 eV
Free-energy (cav+disp)  :            0.00515869 Eh               0.14038 eV

---------------
SCF CONVERGENCE
---------------

  Last Energy change         ...    7.7559e-09  Tolerance :   1.0000e-08
  Last MAX-Density change    ...    0.0000e+00  Tolerance :   1.0000e-07
  Last RMS-Density change    ...    0.0000e+00  Tolerance :   5.0000e-09
  Last DIIS Error            ...    1.2883e-06  Tolerance :   5.0000e-07

             **** THE GBW FILE WAS UPDATED (/burg/berkelbach/users/eav2136/projects/peroxide_dissociation/05_range_separated_functional/wb97x-v-radical-nmf/wb97x-v-radical-nmf_opt.gbw) ****
             **** DENSITY /burg/berkelbach/users/eav2136/projects/peroxide_dissociation/05_range_separated_functional/wb97x-v-radical-nmf/wb97x-v-radical-nmf_opt.scfp WAS UPDATED ****
             **** ENERGY FILE WAS UPDATED (/burg/berkelbach/users/eav2136/projects/peroxide_dissociation/05_range_separated_functional/wb97x-v-radical-nmf/wb97x-v-radical-nmf_opt.en.tmp) ****
----------------------
UHF SPIN CONTAMINATION
----------------------

Warning: in a DFT calculation there is little theoretical justification to 
         calculate <S**2> as in Hartree-Fock theory. We will do it anyways
         but you should keep in mind that the values have only limited relevance

Expectation value of <S**2>     :     0.784121
Ideal value S*(S+1) for S=0.5   :     0.750000
Deviation                       :     0.034121

             **** THE GBW FILE WAS UPDATED (/burg/berkelbach/users/eav2136/projects/peroxide_dissociation/05_range_separated_functional/wb97x-v-radical-nmf/wb97x-v-radical-nmf_opt.gbw) ****
             **** DENSITY /burg/berkelbach/users/eav2136/projects/peroxide_dissociation/05_range_separated_functional/wb97x-v-radical-nmf/wb97x-v-radical-nmf_opt.scfp WAS UPDATED ****
----------------
ORBITAL ENERGIES
----------------
                 SPIN UP ORBITALS
  NO   OCC          E(Eh)            E(eV) 
   0   1.0000     -88.964269     -2420.8408 
   1   1.0000     -19.181166      -521.9461 
   2   1.0000     -19.148512      -521.0575 
   3   1.0000     -10.376174      -282.3500 
   4   1.0000     -10.361496      -281.9507 
   5   1.0000     -10.325894      -280.9819 
   6   1.0000     -10.318292      -280.7750 
   7   1.0000     -10.317115      -280.7430 
   8   1.0000     -10.315623      -280.7024 
   9   1.0000     -10.304352      -280.3957 
  10   1.0000     -10.300854      -280.3005 
  11   1.0000      -8.138627      -221.4633 
  12   1.0000      -6.094338      -165.8354 
  13   1.0000      -6.092616      -165.7885 
  14   1.0000      -6.088047      -165.6642 
  15   1.0000      -1.191745       -32.4290 
  16   1.0000      -1.056475       -28.7481 
  17   1.0000      -1.037553       -28.2333 
  18   1.0000      -0.996191       -27.1077 
  19   1.0000      -0.922109       -25.0919 
  20   1.0000      -0.917099       -24.9555 
  21   1.0000      -0.828727       -22.5508 
  22   1.0000      -0.772796       -21.0289 
  23   1.0000      -0.752980       -20.4896 
  24   1.0000      -0.698512       -19.0075 
  25   1.0000      -0.629580       -17.1318 
  26   1.0000      -0.621054       -16.8997 
  27   1.0000      -0.585443       -15.9307 
  28   1.0000      -0.582150       -15.8411 
  29   1.0000      -0.581605       -15.8263 
  30   1.0000      -0.562147       -15.2968 
  31   1.0000      -0.552482       -15.0338 
  32   1.0000      -0.536143       -14.5892 
  33   1.0000      -0.525415       -14.2973 
  34   1.0000      -0.521206       -14.1827 
  35   1.0000      -0.508377       -13.8336 
  36   1.0000      -0.484427       -13.1819 
  37   1.0000      -0.470013       -12.7897 
  38   1.0000      -0.450155       -12.2493 
  39   1.0000      -0.387912       -10.5556 
  40   1.0000      -0.380811       -10.3624 
  41   1.0000      -0.373358       -10.1596 
  42   1.0000      -0.361013        -9.8237 
  43   1.0000      -0.337930        -9.1956 
  44   0.0000       0.014040         0.3820 
  45   0.0000       0.039713         1.0807 
  46   0.0000       0.076985         2.0949 
  47   0.0000       0.119092         3.2407 
  48   0.0000       0.132769         3.6128 
  49   0.0000       0.139540         3.7971 
  50   0.0000       0.157134         4.2758 
  51   0.0000       0.161999         4.4082 
  52   0.0000       0.177668         4.8346 
  53   0.0000       0.181076         4.9273 
  54   0.0000       0.184967         5.0332 
  55   0.0000       0.200124         5.4457 
  56   0.0000       0.209034         5.6881 
  57   0.0000       0.218627         5.9491 
  58   0.0000       0.221947         6.0395 
  59   0.0000       0.241546         6.5728 
  60   0.0000       0.256392         6.9768 
  61   0.0000       0.269913         7.3447 
  62   0.0000       0.285328         7.7642 
  63   0.0000       0.286680         7.8010 
  64   0.0000       0.295283         8.0350 
  65   0.0000       0.301877         8.2145 
  66   0.0000       0.308997         8.4082 
  67   0.0000       0.314031         8.5452 
  68   0.0000       0.317737         8.6461 
  69   0.0000       0.327271         8.9055 
  70   0.0000       0.338489         9.2107 
  71   0.0000       0.351091         9.5537 
  72   0.0000       0.360379         9.8064 
  73   0.0000       0.366516         9.9734 
  74   0.0000       0.377356        10.2684 
  75   0.0000       0.384699        10.4682 
  76   0.0000       0.400351        10.8941 
  77   0.0000       0.415500        11.3063 
  78   0.0000       0.420272        11.4362 
  79   0.0000       0.427496        11.6328 
  80   0.0000       0.441064        12.0020 
  81   0.0000       0.441992        12.0272 
  82   0.0000       0.453441        12.3388 
  83   0.0000       0.464046        12.6273 
  84   0.0000       0.472557        12.8589 
  85   0.0000       0.478356        13.0167 
  86   0.0000       0.483866        13.1667 
  87   0.0000       0.492692        13.4068 
  88   0.0000       0.503508        13.7012 
  89   0.0000       0.513168        13.9640 
  90   0.0000       0.514040        13.9877 
  91   0.0000       0.527515        14.3544 
  92   0.0000       0.541793        14.7429 
  93   0.0000       0.546273        14.8648 
  94   0.0000       0.555711        15.1217 
  95   0.0000       0.559125        15.2146 
  96   0.0000       0.567152        15.4330 
  97   0.0000       0.588434        16.0121 
  98   0.0000       0.594140        16.1674 
  99   0.0000       0.597627        16.2623 
 100   0.0000       0.620719        16.8906 
 101   0.0000       0.631778        17.1916 
 102   0.0000       0.640932        17.4407 
 103   0.0000       0.651508        17.7284 
 104   0.0000       0.658145        17.9090 
 105   0.0000       0.662579        18.0297 
 106   0.0000       0.681010        18.5312 
 107   0.0000       0.701870        19.0988 
 108   0.0000       0.706619        19.2281 
 109   0.0000       0.714584        19.4448 
 110   0.0000       0.738702        20.1011 
 111   0.0000       0.745142        20.2763 
 112   0.0000       0.754766        20.5382 
 113   0.0000       0.769987        20.9524 
 114   0.0000       0.770546        20.9676 
 115   0.0000       0.781649        21.2697 
 116   0.0000       0.800538        21.7838 
 117   0.0000       0.821957        22.3666 
 118   0.0000       0.831102        22.6154 
 119   0.0000       0.847895        23.0724 
 120   0.0000       0.851783        23.1782 
 121   0.0000       0.867581        23.6081 
 122   0.0000       0.870331        23.6829 
 123   0.0000       0.896107        24.3843 
 124   0.0000       0.919069        25.0091 
 125   0.0000       0.926830        25.2203 
 126   0.0000       0.933077        25.3903 
 127   0.0000       0.936935        25.4953 
 128   0.0000       0.953800        25.9542 
 129   0.0000       0.987006        26.8578 
 130   0.0000       0.989172        26.9167 
 131   0.0000       1.016059        27.6484 
 132   0.0000       1.028210        27.9790 
 133   0.0000       1.033590        28.1254 
 134   0.0000       1.047506        28.5041 
 135   0.0000       1.052765        28.6472 
 136   0.0000       1.076936        29.3049 
 137   0.0000       1.100255        29.9395 
 138   0.0000       1.105753        30.0891 
 139   0.0000       1.114311        30.3219 
 140   0.0000       1.122270        30.5385 
 141   0.0000       1.164944        31.6997 
 142   0.0000       1.213585        33.0233 
 143   0.0000       1.223194        33.2848 
 144   0.0000       1.237846        33.6835 
 145   0.0000       1.260613        34.3030 
 146   0.0000       1.289863        35.0989 
 147   0.0000       1.299479        35.3606 
 148   0.0000       1.316864        35.8337 
 149   0.0000       1.326195        36.0876 
 150   0.0000       1.338386        36.4193 
 151   0.0000       1.344149        36.5761 
 152   0.0000       1.381841        37.6018 
 153   0.0000       1.390909        37.8485 
 154   0.0000       1.412795        38.4441 
 155   0.0000       1.436862        39.0990 
 156   0.0000       1.446940        39.3732 
 157   0.0000       1.465740        39.8848 
 158   0.0000       1.506996        41.0075 
 159   0.0000       1.517803        41.3015 
 160   0.0000       1.540391        41.9162 
 161   0.0000       1.558679        42.4138 
 162   0.0000       1.559685        42.4412 
 163   0.0000       1.569132        42.6982 
 164   0.0000       1.578747        42.9599 
 165   0.0000       1.593362        43.3576 
 166   0.0000       1.603031        43.6207 
 167   0.0000       1.610830        43.8329 
 168   0.0000       1.619561        44.0705 
 169   0.0000       1.626962        44.2719 
 170   0.0000       1.628702        44.3192 
 171   0.0000       1.647687        44.8358 
 172   0.0000       1.658028        45.1172 
 173   0.0000       1.666896        45.3586 
 174   0.0000       1.682450        45.7818 
 175   0.0000       1.684826        45.8464 
 176   0.0000       1.701858        46.3099 
 177   0.0000       1.724535        46.9270 
 178   0.0000       1.732517        47.1442 
 179   0.0000       1.747642        47.5558 
 180   0.0000       1.750805        47.6418 
 181   0.0000       1.760329        47.9010 
 182   0.0000       1.775922        48.3253 
 183   0.0000       1.789307        48.6895 
 184   0.0000       1.805970        49.1430 
 185   0.0000       1.832452        49.8636 
 186   0.0000       1.845439        50.2169 
 187   0.0000       1.865945        50.7749 
 188   0.0000       1.884096        51.2689 
 189   0.0000       1.887978        51.3745 
 190   0.0000       1.901391        51.7395 
 191   0.0000       1.907918        51.9171 
 192   0.0000       1.925077        52.3840 
 193   0.0000       1.941862        52.8408 
 194   0.0000       1.947340        52.9898 
 195   0.0000       1.962472        53.4016 
 196   0.0000       1.986629        54.0589 
 197   0.0000       2.010270        54.7022 
 198   0.0000       2.033225        55.3269 
 199   0.0000       2.057014        55.9742 
 200   0.0000       2.079924        56.5976 
 201   0.0000       2.111372        57.4534 
 202   0.0000       2.137394        58.1614 
 203   0.0000       2.150782        58.5257 
 204   0.0000       2.152782        58.5802 
 205   0.0000       2.172398        59.1139 
 206   0.0000       2.180425        59.3324 
 207   0.0000       2.182916        59.4002 
 208   0.0000       2.195317        59.7376 
 209   0.0000       2.224224        60.5242 
 210   0.0000       2.244023        61.0630 
 211   0.0000       2.256858        61.4122 
 212   0.0000       2.258928        61.4686 
 213   0.0000       2.264951        61.6324 
 214   0.0000       2.299928        62.5842 
 215   0.0000       2.315696        63.0133 
 216   0.0000       2.329890        63.3995 
 217   0.0000       2.362421        64.2847 
 218   0.0000       2.395810        65.1933 
 219   0.0000       2.398713        65.2723 
 220   0.0000       2.422488        65.9192 
 221   0.0000       2.449360        66.6505 
 222   0.0000       2.457355        66.8680 
 223   0.0000       2.496243        67.9262 
 224   0.0000       2.503133        68.1137 
 225   0.0000       2.513041        68.3833 
 226   0.0000       2.542530        69.1857 
 227   0.0000       2.611547        71.0638 
 228   0.0000       2.628106        71.5144 
 229   0.0000       2.634280        71.6824 
 230   0.0000       2.659573        72.3707 
 231   0.0000       2.675669        72.8086 
 232   0.0000       2.679871        72.9230 
 233   0.0000       2.700993        73.4978 
 234   0.0000       2.705629        73.6239 
 235   0.0000       2.717635        73.9506 
 236   0.0000       2.750253        74.8382 
 237   0.0000       2.765065        75.2412 
 238   0.0000       2.783898        75.7537 
 239   0.0000       2.786413        75.8221 
 240   0.0000       2.790955        75.9458 
 241   0.0000       2.801414        76.2304 
 242   0.0000       2.829058        76.9826 
 243   0.0000       2.832846        77.0857 
 244   0.0000       2.848991        77.5250 
 245   0.0000       2.856796        77.7374 
 246   0.0000       2.881806        78.4179 
 247   0.0000       2.890112        78.6439 
 248   0.0000       2.896687        78.8228 
 249   0.0000       2.923979        79.5655 
 250   0.0000       2.940845        80.0245 
 251   0.0000       2.961851        80.5961 
 252   0.0000       2.977783        81.0296 
 253   0.0000       2.996346        81.5347 
 254   0.0000       2.997556        81.5677 
 255   0.0000       3.029738        82.4434 
 256   0.0000       3.040016        82.7230 
 257   0.0000       3.056891        83.1822 
 258   0.0000       3.065480        83.4160 
 259   0.0000       3.073498        83.6341 
 260   0.0000       3.083492        83.9061 
 261   0.0000       3.112161        84.6862 
 262   0.0000       3.120517        84.9136 
 263   0.0000       3.129038        85.1454 
 264   0.0000       3.142017        85.4986 
 265   0.0000       3.153574        85.8131 
 266   0.0000       3.163318        86.0783 
 267   0.0000       3.197787        87.0162 
 268   0.0000       3.216317        87.5204 
 269   0.0000       3.223548        87.7172 
 270   0.0000       3.239422        88.1492 
 271   0.0000       3.246345        88.3375 
 272   0.0000       3.250748        88.4574 
 273   0.0000       3.272631        89.0528 
 274   0.0000       3.279343        89.2354 
 275   0.0000       3.296946        89.7145 
 276   0.0000       3.335467        90.7627 
 277   0.0000       3.341791        90.9348 
 278   0.0000       3.357715        91.3681 
 279   0.0000       3.369230        91.6814 
 280   0.0000       3.384970        92.1097 
 281   0.0000       3.388904        92.2168 
 282   0.0000       3.422293        93.1253 
 283   0.0000       3.428142        93.2845 
 284   0.0000       3.439890        93.6042 
 285   0.0000       3.449325        93.8609 
 286   0.0000       3.456361        94.0524 
 287   0.0000       3.468265        94.3763 
 288   0.0000       3.471051        94.4521 
 289   0.0000       3.483727        94.7970 
 290   0.0000       3.503482        95.3346 
 291   0.0000       3.512182        95.5713 
 292   0.0000       3.531202        96.0889 
 293   0.0000       3.555729        96.7563 
 294   0.0000       3.559235        96.8517 
 295   0.0000       3.579917        97.4145 
 296   0.0000       3.585714        97.5722 
 297   0.0000       3.601456        98.0006 
 298   0.0000       3.604960        98.0960 
 299   0.0000       3.629988        98.7770 
 300   0.0000       3.641127        99.0801 
 301   0.0000       3.646401        99.2236 
 302   0.0000       3.664804        99.7244 
 303   0.0000       3.683710       100.2388 
 304   0.0000       3.742778       101.8462 
 305   0.0000       3.744714       101.8989 
 306   0.0000       3.771767       102.6350 
 307   0.0000       3.794285       103.2478 
 308   0.0000       3.827972       104.1644 
 309   0.0000       3.882273       105.6420 
 310   0.0000       3.887132       105.7742 
 311   0.0000       3.930164       106.9452 
 312   0.0000       3.943586       107.3104 
 313   0.0000       3.989481       108.5593 
 314   0.0000       4.003167       108.9317 
 315   0.0000       4.044138       110.0466 
 316   0.0000       4.068707       110.7152 
 317   0.0000       4.124206       112.2254 
 318   0.0000       4.152770       113.0026 
 319   0.0000       4.204301       114.4048 
 320   0.0000       4.251588       115.6916 
 321   0.0000       4.264966       116.0556 
 322   0.0000       4.282331       116.5281 
 323   0.0000       4.284898       116.5980 
 324   0.0000       4.290573       116.7524 
 325   0.0000       4.318548       117.5137 
 326   0.0000       4.338789       118.0645 
 327   0.0000       4.362377       118.7063 
 328   0.0000       4.375546       119.0646 
 329   0.0000       4.397557       119.6636 
 330   0.0000       4.422693       120.3476 
 331   0.0000       4.458990       121.3353 
 332   0.0000       4.501158       122.4827 
 333   0.0000       4.548498       123.7709 
 334   0.0000       4.602768       125.2477 
 335   0.0000       4.627071       125.9090 
 336   0.0000       4.674747       127.2063 
 337   0.0000       4.747967       129.1988 
 338   0.0000       4.753259       129.3427 
 339   0.0000       4.780631       130.0876 
 340   0.0000       4.786083       130.2359 
 341   0.0000       4.957832       134.9095 
 342   0.0000       5.018704       136.5659 
 343   0.0000       5.033611       136.9715 
 344   0.0000       5.069984       137.9613 
 345   0.0000       5.217476       141.9748 
 346   0.0000       5.266036       143.2961 
 347   0.0000       5.292469       144.0154 
 348   0.0000       5.312115       144.5500 
 349   0.0000       5.321543       144.8066 
 350   0.0000       5.336044       145.2011 
 351   0.0000       5.378367       146.3528 
 352   0.0000       5.447931       148.2457 
 353   0.0000       5.477655       149.0546 
 354   0.0000       5.564500       151.4177 
 355   0.0000       5.590012       152.1120 
 356   0.0000       5.656841       153.9305 
 357   0.0000       5.733866       156.0264 
 358   0.0000       5.774665       157.1366 
 359   0.0000       5.911579       160.8622 
 360   0.0000       6.008489       163.4993 
 361   0.0000       6.229434       169.5115 
 362   0.0000       6.354634       172.9184 
 363   0.0000       6.460076       175.7876 
 364   0.0000       6.519358       177.4008 
 365   0.0000       6.564116       178.6187 
 366   0.0000       6.607916       179.8105 
 367   0.0000       6.656273       181.1264 
 368   0.0000       6.883559       187.3112 
 369   0.0000       6.905616       187.9114 
 370   0.0000       6.950917       189.1441 
 371   0.0000       7.054877       191.9730 
 372   0.0000       7.157913       194.7767 
 373   0.0000       7.256640       197.4632 
 374   0.0000       7.270686       197.8454 
 375   0.0000       8.924189       242.8395 
 376   0.0000       9.391325       255.5509 
 377   0.0000       9.557952       260.0851 
 378   0.0000      20.110618       547.2377 
 379   0.0000      22.036493       599.6435 
 380   0.0000      22.278764       606.2360 
 381   0.0000      22.751056       619.0877 
 382   0.0000      22.763317       619.4214 
 383   0.0000      22.827148       621.1583 
 384   0.0000      22.889036       622.8423 
 385   0.0000      23.272283       633.2710 
 386   0.0000      23.431905       637.6145 
 387   0.0000      43.839979      1192.9465 
 388   0.0000      43.963359      1196.3038 

                 SPIN DOWN ORBITALS
  NO   OCC          E(Eh)            E(eV) 
   0   1.0000     -88.960778     -2420.7458 
   1   1.0000     -19.180732      -521.9343 
   2   1.0000     -19.147754      -521.0369 
   3   1.0000     -10.376417      -282.3567 
   4   1.0000     -10.360949      -281.9357 
   5   1.0000     -10.323000      -280.9031 
   6   1.0000     -10.317217      -280.7458 
   7   1.0000     -10.316417      -280.7240 
   8   1.0000     -10.314135      -280.6619 
   9   1.0000     -10.305236      -280.4197 
  10   1.0000     -10.302004      -280.3318 
  11   1.0000      -8.135630      -221.3817 
  12   1.0000      -6.090305      -165.7256 
  13   1.0000      -6.085902      -165.6058 
  14   1.0000      -6.083610      -165.5434 
  15   1.0000      -1.190793       -32.4031 
  16   1.0000      -1.050420       -28.5834 
  17   1.0000      -1.035296       -28.1718 
  18   1.0000      -0.986275       -26.8379 
  19   1.0000      -0.917693       -24.9717 
  20   1.0000      -0.909920       -24.7602 
  21   1.0000      -0.823183       -22.4000 
  22   1.0000      -0.769699       -20.9446 
  23   1.0000      -0.745554       -20.2876 
  24   1.0000      -0.696457       -18.9516 
  25   1.0000      -0.625196       -17.0124 
  26   1.0000      -0.619260       -16.8509 
  27   1.0000      -0.583916       -15.8892 
  28   1.0000      -0.580198       -15.7880 
  29   1.0000      -0.566090       -15.4041 
  30   1.0000      -0.560956       -15.2644 
  31   1.0000      -0.543499       -14.7894 
  32   1.0000      -0.535180       -14.5630 
  33   1.0000      -0.523319       -14.2402 
  34   1.0000      -0.510106       -13.8807 
  35   1.0000      -0.504481       -13.7276 
  36   1.0000      -0.480698       -13.0805 
  37   1.0000      -0.466011       -12.6808 
  38   1.0000      -0.405179       -11.0255 
  39   1.0000      -0.384911       -10.4740 
  40   1.0000      -0.376636       -10.2488 
  41   1.0000      -0.358548        -9.7566 
  42   1.0000      -0.336706        -9.1622 
  43   0.0000      -0.130835        -3.5602 
  44   0.0000       0.035745         0.9727 
  45   0.0000       0.050713         1.3800 
  46   0.0000       0.080302         2.1851 
  47   0.0000       0.124591         3.3903 
  48   0.0000       0.137079         3.7301 
  49   0.0000       0.142569         3.8795 
  50   0.0000       0.158649         4.3170 
  51   0.0000       0.163376         4.4457 
  52   0.0000       0.178959         4.8697 
  53   0.0000       0.181825         4.9477 
  54   0.0000       0.188207         5.1214 
  55   0.0000       0.202055         5.4982 
  56   0.0000       0.216125         5.8811 
  57   0.0000       0.219930         5.9846 
  58   0.0000       0.223366         6.0781 
  59   0.0000       0.243717         6.6319 
  60   0.0000       0.256089         6.9685 
  61   0.0000       0.271541         7.3890 
  62   0.0000       0.287138         7.8134 
  63   0.0000       0.291458         7.9310 
  64   0.0000       0.296838         8.0774 
  65   0.0000       0.307538         8.3685 
  66   0.0000       0.309706         8.4275 
  67   0.0000       0.315679         8.5901 
  68   0.0000       0.320713         8.7271 
  69   0.0000       0.328909         8.9501 
  70   0.0000       0.343179         9.3384 
  71   0.0000       0.354960         9.6589 
  72   0.0000       0.363235         9.8841 
  73   0.0000       0.369973        10.0675 
  74   0.0000       0.383261        10.4291 
  75   0.0000       0.388337        10.5672 
  76   0.0000       0.401665        10.9299 
  77   0.0000       0.419264        11.4087 
  78   0.0000       0.425144        11.5687 
  79   0.0000       0.429880        11.6976 
  80   0.0000       0.442679        12.0459 
  81   0.0000       0.444445        12.0940 
  82   0.0000       0.455045        12.3824 
  83   0.0000       0.469546        12.7770 
  84   0.0000       0.477984        13.0066 
  85   0.0000       0.484061        13.1720 
  86   0.0000       0.487447        13.2641 
  87   0.0000       0.494731        13.4623 
  88   0.0000       0.505666        13.7599 
  89   0.0000       0.514887        14.0108 
  90   0.0000       0.515473        14.0267 
  91   0.0000       0.529250        14.4016 
  92   0.0000       0.543551        14.7908 
  93   0.0000       0.547818        14.9069 
  94   0.0000       0.556907        15.1542 
  95   0.0000       0.560889        15.2626 
  96   0.0000       0.569465        15.4959 
  97   0.0000       0.590862        16.0782 
  98   0.0000       0.597603        16.2616 
  99   0.0000       0.599483        16.3128 
 100   0.0000       0.622376        16.9357 
 101   0.0000       0.639010        17.3883 
 102   0.0000       0.643684        17.5155 
 103   0.0000       0.653467        17.7818 
 104   0.0000       0.659934        17.9577 
 105   0.0000       0.664038        18.0694 
 106   0.0000       0.682368        18.5682 
 107   0.0000       0.703623        19.1465 
 108   0.0000       0.707956        19.2645 
 109   0.0000       0.717382        19.5210 
 110   0.0000       0.741543        20.1784 
 111   0.0000       0.746871        20.3234 
 112   0.0000       0.758287        20.6340 
 113   0.0000       0.771877        21.0038 
 114   0.0000       0.772910        21.0320 
 115   0.0000       0.784655        21.3516 
 116   0.0000       0.802647        21.8411 
 117   0.0000       0.823119        22.3982 
 118   0.0000       0.833432        22.6788 
 119   0.0000       0.850038        23.1307 
 120   0.0000       0.852475        23.1970 
 121   0.0000       0.871502        23.7148 
 122   0.0000       0.872748        23.7487 
 123   0.0000       0.898876        24.4597 
 124   0.0000       0.920373        25.0446 
 125   0.0000       0.928515        25.2662 
 126   0.0000       0.936395        25.4806 
 127   0.0000       0.939329        25.5604 
 128   0.0000       0.957384        26.0517 
 129   0.0000       0.989683        26.9306 
 130   0.0000       0.992026        26.9944 
 131   0.0000       1.017700        27.6930 
 132   0.0000       1.030059        28.0293 
 133   0.0000       1.035339        28.1730 
 134   0.0000       1.050089        28.5744 
 135   0.0000       1.054822        28.7032 
 136   0.0000       1.079867        29.3847 
 137   0.0000       1.101757        29.9803 
 138   0.0000       1.107545        30.1378 
 139   0.0000       1.116144        30.3718 
 140   0.0000       1.123690        30.5772 
 141   0.0000       1.165861        31.7247 
 142   0.0000       1.215250        33.0686 
 143   0.0000       1.228423        33.4271 
 144   0.0000       1.239061        33.7166 
 145   0.0000       1.262247        34.3475 
 146   0.0000       1.292281        35.1648 
 147   0.0000       1.301787        35.4234 
 148   0.0000       1.319123        35.8952 
 149   0.0000       1.328216        36.1426 
 150   0.0000       1.341114        36.4936 
 151   0.0000       1.347008        36.6539 
 152   0.0000       1.384053        37.6620 
 153   0.0000       1.392800        37.9000 
 154   0.0000       1.414699        38.4959 
 155   0.0000       1.439730        39.1770 
 156   0.0000       1.448234        39.4084 
 157   0.0000       1.469267        39.9808 
 158   0.0000       1.513460        41.1833 
 159   0.0000       1.522237        41.4222 
 160   0.0000       1.541318        41.9414 
 161   0.0000       1.563565        42.5468 
 162   0.0000       1.568731        42.6874 
 163   0.0000       1.574705        42.8499 
 164   0.0000       1.582753        43.0689 
 165   0.0000       1.595502        43.4158 
 166   0.0000       1.607544        43.7435 
 167   0.0000       1.613860        43.9154 
 168   0.0000       1.621710        44.1290 
 169   0.0000       1.629855        44.3506 
 170   0.0000       1.632675        44.4273 
 171   0.0000       1.650716        44.9183 
 172   0.0000       1.660014        45.1713 
 173   0.0000       1.671446        45.4824 
 174   0.0000       1.684728        45.8438 
 175   0.0000       1.688129        45.9363 
 176   0.0000       1.704307        46.3765 
 177   0.0000       1.726709        46.9861 
 178   0.0000       1.734765        47.2054 
 179   0.0000       1.749906        47.6174 
 180   0.0000       1.759412        47.8760 
 181   0.0000       1.763420        47.9851 
 182   0.0000       1.779051        48.4104 
 183   0.0000       1.792737        48.7828 
 184   0.0000       1.809975        49.2519 
 185   0.0000       1.836453        49.9724 
 186   0.0000       1.863004        50.6949 
 187   0.0000       1.875534        51.0359 
 188   0.0000       1.889919        51.4273 
 189   0.0000       1.893522        51.5253 
 190   0.0000       1.909953        51.9725 
 191   0.0000       1.912896        52.0526 
 192   0.0000       1.928749        52.4839 
 193   0.0000       1.946604        52.9698 
 194   0.0000       1.950617        53.0790 
 195   0.0000       1.965395        53.4811 
 196   0.0000       1.989294        54.1314 
 197   0.0000       2.012255        54.7563 
 198   0.0000       2.034621        55.3649 
 199   0.0000       2.059505        56.0420 
 200   0.0000       2.081935        56.6523 
 201   0.0000       2.114242        57.5314 
 202   0.0000       2.141896        58.2840 
 203   0.0000       2.154456        58.6257 
 204   0.0000       2.158497        58.7357 
 205   0.0000       2.173868        59.1540 
 206   0.0000       2.182786        59.3966 
 207   0.0000       2.185076        59.4589 
 208   0.0000       2.197319        59.7921 
 209   0.0000       2.225778        60.5665 
 210   0.0000       2.248919        61.1962 
 211   0.0000       2.259844        61.4935 
 212   0.0000       2.263297        61.5874 
 213   0.0000       2.267961        61.7144 
 214   0.0000       2.303241        62.6744 
 215   0.0000       2.318813        63.0981 
 216   0.0000       2.331258        63.4367 
 217   0.0000       2.364233        64.3340 
 218   0.0000       2.398631        65.2701 
 219   0.0000       2.401225        65.3407 
 220   0.0000       2.424341        65.9697 
 221   0.0000       2.451303        66.7033 
 222   0.0000       2.459586        66.9287 
 223   0.0000       2.498706        67.9932 
 224   0.0000       2.504610        68.1539 
 225   0.0000       2.515188        68.4417 
 226   0.0000       2.544952        69.2517 
 227   0.0000       2.613118        71.1066 
 228   0.0000       2.629761        71.5594 
 229   0.0000       2.637123        71.7598 
 230   0.0000       2.660655        72.4001 
 231   0.0000       2.678151        72.8762 
 232   0.0000       2.681067        72.9555 
 233   0.0000       2.703329        73.5613 
 234   0.0000       2.707575        73.6769 
 235   0.0000       2.721804        74.0641 
 236   0.0000       2.752038        74.8868 
 237   0.0000       2.768413        75.3324 
 238   0.0000       2.786048        75.8122 
 239   0.0000       2.788677        75.8838 
 240   0.0000       2.794079        76.0308 
 241   0.0000       2.804472        76.3136 
 242   0.0000       2.831976        77.0620 
 243   0.0000       2.836254        77.1784 
 244   0.0000       2.850256        77.5594 
 245   0.0000       2.858775        77.7912 
 246   0.0000       2.885166        78.5094 
 247   0.0000       2.892142        78.6992 
 248   0.0000       2.899310        78.8942 
 249   0.0000       2.926017        79.6210 
 250   0.0000       2.942082        80.0581 
 251   0.0000       2.965144        80.6857 
 252   0.0000       2.979139        81.0665 
 253   0.0000       2.997749        81.5729 
 254   0.0000       3.000919        81.6592 
 255   0.0000       3.032833        82.5276 
 256   0.0000       3.042574        82.7926 
 257   0.0000       3.058515        83.2264 
 258   0.0000       3.067808        83.4793 
 259   0.0000       3.075414        83.6863 
 260   0.0000       3.087503        84.0152 
 261   0.0000       3.114041        84.7374 
 262   0.0000       3.121666        84.9448 
 263   0.0000       3.130127        85.1751 
 264   0.0000       3.143884        85.5494 
 265   0.0000       3.155174        85.8567 
 266   0.0000       3.166187        86.1563 
 267   0.0000       3.198973        87.0485 
 268   0.0000       3.218872        87.5900 
 269   0.0000       3.225373        87.7669 
 270   0.0000       3.243395        88.2573 
 271   0.0000       3.249424        88.4213 
 272   0.0000       3.252781        88.5127 
 273   0.0000       3.274443        89.1021 
 274   0.0000       3.282735        89.3278 
 275   0.0000       3.301759        89.8454 
 276   0.0000       3.337007        90.8046 
 277   0.0000       3.342944        90.9661 
 278   0.0000       3.359606        91.4195 
 279   0.0000       3.370477        91.7153 
 280   0.0000       3.386363        92.1476 
 281   0.0000       3.389713        92.2388 
 282   0.0000       3.422994        93.1444 
 283   0.0000       3.429013        93.3082 
 284   0.0000       3.442490        93.6749 
[...]
      f+1     :     0.003803
      f-1     :     0.001259
      f+2     :     0.003697
      f-2     :     0.001959
      f+3     :     0.003707
      f-3     :     0.002911
  1 S s       :     5.171226  s :     5.171226
      pz      :     3.145655  p :     9.567008
      px      :     3.290441
      py      :     3.130912
      dz2     :     0.049909  d :     0.330829
      dxz     :     0.062880
      dyz     :     0.075924
      dx2y2   :     0.078713
      dxy     :     0.063403
      f0      :     0.003790  f :     0.050651
      f+1     :     0.005967
      f-1     :     0.006054
      f+2     :     0.009152
      f-2     :     0.008090
      f+3     :     0.009342
      f-3     :     0.008257
  2 C s       :     2.772606  s :     2.772606
      pz      :     0.913207  p :     2.960950
      px      :     1.069168
      py      :     0.978574
      dz2     :     0.077883  d :     0.560983
      dxz     :     0.109415
      dyz     :     0.088938
      dx2y2   :     0.155753
      dxy     :     0.128994
      f0      :     0.005509  f :     0.054214
      f+1     :     0.005958
      f-1     :     0.005704
      f+2     :     0.006584
      f-2     :     0.009545
      f+3     :     0.013992
      f-3     :     0.006923
  3 C s       :     2.764515  s :     2.764515
      pz      :     0.909760  p :     2.890660
      px      :     0.988396
      py      :     0.992504
      dz2     :     0.041125  d :     0.375887
      dxz     :     0.076683
      dyz     :     0.053580
      dx2y2   :     0.090147
      dxy     :     0.114353
      f0      :     0.004715  f :     0.042802
      f+1     :     0.002433
      f-1     :     0.005758
      f+2     :     0.005697
      f-2     :     0.007325
      f+3     :     0.010636
      f-3     :     0.006238
  4 C s       :     2.757886  s :     2.757886
      pz      :     0.916091  p :     2.894401
      px      :     0.990200
      py      :     0.988110
      dz2     :     0.063334  d :     0.371751
      dxz     :     0.054529
      dyz     :     0.064976
      dx2y2   :     0.082483
      dxy     :     0.106428
      f0      :     0.003363  f :     0.042545
      f+1     :     0.004682
      f-1     :     0.005820
      f+2     :     0.006918
      f-2     :     0.007667
      f+3     :     0.008309
      f-3     :     0.005786
  5 C s       :     2.733471  s :     2.733471
      pz      :     0.828076  p :     2.769639
      px      :     1.030189
      py      :     0.911374
      dz2     :     0.065250  d :     0.480097
      dxz     :     0.096312
      dyz     :     0.074383
      dx2y2   :     0.132261
      dxy     :     0.111891
      f0      :     0.005675  f :     0.053057
      f+1     :     0.005925
      f-1     :     0.005057
      f+2     :     0.007149
      f-2     :     0.008863
      f+3     :     0.013561
      f-3     :     0.006828
  6 C s       :     2.756696  s :     2.756696
      pz      :     0.924386  p :     2.906805
      px      :     0.998106
      py      :     0.984313
      dz2     :     0.040592  d :     0.370137
      dxz     :     0.075965
      dyz     :     0.053517
      dx2y2   :     0.090434
      dxy     :     0.109630
      f0      :     0.004504  f :     0.042734
      f+1     :     0.002454
      f-1     :     0.005864
      f+2     :     0.005924
      f-2     :     0.007372
      f+3     :     0.010393
      f-3     :     0.006223
  7 C s       :     2.768291  s :     2.768291
      pz      :     0.911755  p :     2.882997
      px      :     0.982300
      py      :     0.988942
      dz2     :     0.071394  d :     0.381810
      dxz     :     0.057368
      dyz     :     0.062877
      dx2y2   :     0.079449
      dxy     :     0.110723
      f0      :     0.003412  f :     0.042658
      f+1     :     0.005197
      f-1     :     0.005751
      f+2     :     0.006899
      f-2     :     0.007548
      f+3     :     0.007945
      f-3     :     0.005905
  8 C s       :     2.760426  s :     2.760426
      pz      :     0.952674  p :     2.694635
      px      :     0.797386
      py      :     0.944574
      dz2     :     0.242308  d :     1.021025
      dxz     :     0.190609
      dyz     :     0.291589
      dx2y2   :     0.167785
      dxy     :     0.128734
      f0      :     0.024383  f :     0.157299
      f+1     :     0.021888
      f-1     :     0.040527
      f+2     :     0.014411
      f-2     :     0.024915
      f+3     :     0.014340
      f-3     :     0.016836
  9 O s       :     3.422872  s :     3.422872
      pz      :     1.607294  p :     4.624161
      px      :     1.475000
      py      :     1.541867
      dz2     :     0.009151  d :     0.059058
      dxz     :     0.008661
      dyz     :     0.013873
      dx2y2   :     0.011431
      dxy     :     0.015943
      f0      :     0.000524  f :     0.005199
      f+1     :     0.000428
      f-1     :     0.000872
      f+2     :     0.000564
      f-2     :     0.001218
      f+3     :     0.000956
      f-3     :     0.000637
 10 O s       :     3.422709  s :     3.422709
      pz      :     1.491409  p :     4.624372
      px      :     1.495118
      py      :     1.637845
      dz2     :     0.022011  d :     0.059079
      dxz     :     0.017660
      dyz     :     0.013657
      dx2y2   :     0.002735
      dxy     :     0.003016
      f0      :     0.001353  f :     0.005203
      f+1     :     0.001586
      f-1     :     0.001027
      f+2     :     0.000546
      f-2     :     0.000589
      f+3     :     0.000052
      f-3     :     0.000051
 11 H s       :     0.794084  s :     0.794084
      pz      :     0.020929  p :     0.066489
      px      :     0.012652
      py      :     0.032907
 12 H s       :     0.792785  s :     0.792785
      pz      :     0.024610  p :     0.066984
      px      :     0.014279
      py      :     0.028095
 13 H s       :     0.792807  s :     0.792807
      pz      :     0.024911  p :     0.067016
      px      :     0.027787
      py      :     0.014317
 14 H s       :     0.766191  s :     0.766191
      pz      :     0.019095  p :     0.062233
      px      :     0.028625
      py      :     0.014513
 15 H s       :     0.770627  s :     0.770627
      pz      :     0.010951  p :     0.060420
      px      :     0.032207
      py      :     0.017262
 16 H s       :     0.770861  s :     0.770861
      pz      :     0.019461  p :     0.060495
      px      :     0.026536
      py      :     0.014498
 17 H s       :     0.769694  s :     0.769694
      pz      :     0.010907  p :     0.061011
      px      :     0.033866
      py      :     0.016238

SPIN
  0 C s       :    -0.000924  s :    -0.000924
      pz      :    -0.000724  p :    -0.006572
      px      :    -0.005141
      py      :    -0.000707
      dz2     :     0.005210  d :     0.027058
      dxz     :     0.011555
      dyz     :     0.001035
      dx2y2   :     0.001987
      dxy     :     0.007272
      f0      :     0.000038  f :     0.002028
      f+1     :     0.001168
      f-1     :     0.000152
      f+2     :     0.000208
      f-2     :     0.000042
      f+3     :     0.000043
      f-3     :     0.000377
  1 S s       :     0.006736  s :     0.006736
      pz      :     0.264603  p :     0.425076
      px      :     0.030048
      py      :     0.130425
      dz2     :    -0.001755  d :     0.005553
      dxz     :     0.002838
      dyz     :     0.004165
      dx2y2   :     0.001240
      dxy     :    -0.000935
      f0      :    -0.000179  f :     0.001109
      f+1     :     0.000009
      f-1     :     0.001378
      f+2     :    -0.000224
      f-2     :     0.000182
      f+3     :    -0.000131
      f-3     :     0.000075
  2 C s       :     0.000108  s :     0.000108
      pz      :     0.033250  p :     0.050643
      px      :     0.002336
      py      :     0.015057
      dz2     :     0.015519  d :     0.036479
      dxz     :     0.005504
      dyz     :     0.004501
      dx2y2   :     0.007429
      dxy     :     0.003526
      f0      :     0.000278  f :     0.003836
      f+1     :     0.000990
      f-1     :     0.000896
      f+2     :     0.000255
      f-2     :     0.000129
      f+3     :     0.000321
      f-3     :     0.000968
  3 C s       :     0.002079  s :     0.002079
      pz      :     0.061654  p :     0.100834
      px      :     0.007503
      py      :     0.031677
      dz2     :    -0.001314  d :    -0.000080
      dxz     :     0.001159
      dyz     :     0.000038
      dx2y2   :     0.000281
      dxy     :    -0.000243
      f0      :     0.000162  f :    -0.000072
      f+1     :    -0.000034
      f-1     :    -0.000295
      f+2     :     0.000032
      f-2     :    -0.000064
      f+3     :     0.000163
      f-3     :    -0.000037
  4 C s       :    -0.001764  s :    -0.001764
      pz      :    -0.028217  p :    -0.046195
      px      :    -0.005081
      py      :    -0.012897
      dz2     :     0.018752  d :     0.029852
      dxz     :     0.001669
      dyz     :     0.001737
      dx2y2   :     0.002343
      dxy     :     0.005352
      f0      :     0.000072  f :     0.003782
      f+1     :     0.001563
      f-1     :     0.000672
      f+2     :     0.000239
      f-2     :     0.000119
      f+3     :     0.000093
      f-3     :     0.001023
  5 C s       :     0.004965  s :     0.004965
      pz      :     0.124765  p :     0.207481
      px      :     0.018096
      py      :     0.064619
      dz2     :    -0.002773  d :    -0.011963
      dxz     :    -0.003453
      dyz     :    -0.001258
      dx2y2   :    -0.002286
      dxy     :    -0.002192
      f0      :    -0.000305  f :    -0.001893
      f+1     :    -0.000405
      f-1     :    -0.000122
      f+2     :    -0.000257
      f-2     :    -0.000323
      f+3     :    -0.000340
      f-3     :    -0.000142
  6 C s       :    -0.002269  s :    -0.002269
      pz      :    -0.037319  p :    -0.066488
      px      :    -0.007210
      py      :    -0.021958
      dz2     :     0.006557  d :     0.033097
      dxz     :     0.009345
      dyz     :     0.004872
      dx2y2   :     0.010698
      dxy     :     0.001626
      f0      :     0.001009  f :     0.004290
      f+1     :     0.000077
      f-1     :     0.001017
      f+2     :     0.000330
      f-2     :     0.000408
      f+3     :     0.000986
      f-3     :     0.000464
  7 C s       :     0.002780  s :     0.002780
      pz      :     0.077082  p :     0.125979
      px      :     0.009941
      py      :     0.038956
      dz2     :    -0.002318  d :    -0.004917
      dxz     :     0.000109
      dyz     :    -0.001068
      dx2y2   :    -0.001834
      dxy     :     0.000195
      f0      :    -0.000122  f :    -0.000428
      f+1     :     0.000347
      f-1     :    -0.000535
      f+2     :    -0.000024
      f-2     :    -0.000132
      f+3     :    -0.000066
      f-3     :     0.000105
  8 C s       :    -0.001335  s :    -0.001335
      pz      :    -0.001840  p :    -0.008129
      px      :    -0.003187
      py      :    -0.003101
      dz2     :     0.002688  d :     0.010121
      dxz     :     0.001957
      dyz     :     0.000226
      dx2y2   :     0.002645
      dxy     :     0.002604
      f0      :     0.000051  f :     0.005033
      f+1     :     0.000314
      f-1     :     0.004060
      f+2     :     0.000096
      f-2     :     0.000257
      f+3     :     0.000020
      f-3     :     0.000236
  9 O s       :     0.000292  s :     0.000292
      pz      :     0.016759  p :     0.022092
      px      :     0.004778
      py      :     0.000556
      dz2     :    -0.000014  d :    -0.000158
      dxz     :     0.000009
      dyz     :     0.000029
      dx2y2   :    -0.000127
      dxy     :    -0.000055
      f0      :    -0.000003  f :    -0.000021
      f+1     :     0.000002
      f-1     :    -0.000001
      f+2     :    -0.000007
      f-2     :    -0.000002
      f+3     :     0.000000
      f-3     :    -0.000010
 10 O s       :     0.000249  s :     0.000249
      pz      :     0.000241  p :     0.020785
      px      :     0.001084
      py      :     0.019460
      dz2     :    -0.000094  d :    -0.000169
      dxz     :    -0.000123
      dyz     :     0.000029
      dx2y2   :     0.000004
      dxy     :     0.000015
      f0      :    -0.000015  f :    -0.000021
      f+1     :    -0.000006
      f-1     :    -0.000001
      f+2     :    -0.000004
      f-2     :     0.000005
      f+3     :    -0.000000
      f-3     :     0.000000
 11 H s       :    -0.000200  s :    -0.000200
      pz      :    -0.000026  p :    -0.000166
      px      :    -0.000131
      py      :    -0.000008
 12 H s       :     0.011531  s :     0.011531
      pz      :    -0.000159  p :    -0.000486
      px      :    -0.000210
      py      :    -0.000116
 13 H s       :     0.011717  s :     0.011717
      pz      :    -0.000138  p :    -0.000491
      px      :    -0.000319
      py      :    -0.000035
 14 H s       :    -0.002440  s :    -0.002440
      pz      :     0.001352  p :     0.002391
      px      :     0.000363
      py      :     0.000676
 15 H s       :     0.000914  s :     0.000914
      pz      :    -0.000588  p :    -0.001106
      px      :    -0.000192
      py      :    -0.000326
 16 H s       :     0.001364  s :     0.001364
      pz      :    -0.000832  p :    -0.001593
      px      :    -0.000259
      py      :    -0.000502
 17 H s       :    -0.003167  s :    -0.003167
      pz      :     0.001462  p :     0.002790
      px      :     0.000512
      py      :     0.000816


                      *****************************
                      * MAYER POPULATION ANALYSIS *
                      *****************************

  NA   - Mulliken gross atomic population
  ZA   - Total nuclear charge
  QA   - Mulliken gross atomic charge
  VA   - Mayer's total valence
  BVA  - Mayer's bonded valence
  FA   - Mayer's free valence

  ATOM       NA         ZA         QA         VA         BVA        FA
  0 C      6.4100     6.0000    -0.4100     3.8679     3.8673     0.0006
  1 S     15.7538    16.0000     0.2462     2.9507     2.7088     0.2418
  2 C      5.8382     6.0000     0.1618     3.8436     3.8311     0.0125
  3 C      6.1580     6.0000    -0.1580     3.8902     3.8737     0.0165
  4 C      6.2268     6.0000    -0.2268     4.0086     4.0039     0.0047
  5 C      5.7925     6.0000     0.2075     3.4089     3.3402     0.0687
  6 C      6.2380     6.0000    -0.2380     4.0215     4.0137     0.0078
  7 C      6.1118     6.0000    -0.1118     3.8670     3.8422     0.0248
  8 C      5.7120     6.0000     0.2880     4.5292     4.5290     0.0002
  9 O      8.5809     8.0000    -0.5809     1.8622     1.8615     0.0007
 10 O      8.5814     8.0000    -0.5814     1.8611     1.8605     0.0006
 11 H      0.7888     1.0000     0.2112     0.9530     0.9530     0.0000
 12 H      0.7921     1.0000     0.2079     0.9526     0.9523     0.0003
 13 H      0.7921     1.0000     0.2079     0.9526     0.9523     0.0003
 14 H      0.7923     1.0000     0.2077     0.9521     0.9521     0.0000
 15 H      0.8148     1.0000     0.1852     0.9791     0.9791     0.0000
 16 H      0.8154     1.0000     0.1846     0.9783     0.9783     0.0000
 17 H      0.8013     1.0000     0.1987     0.9566     0.9565     0.0000

  Mayer bond orders larger than 0.100000
B(  0-C ,  1-S ) :   1.0343 B(  0-C , 11-H ) :   0.9323 B(  0-C , 12-H ) :   0.9343 
B(  0-C , 13-H ) :   0.9343 B(  1-S ,  2-C ) :   1.4260 B(  2-C ,  3-C ) :   1.1847 
B(  2-C ,  7-C ) :   1.1586 B(  3-C ,  4-C ) :   1.5628 B(  3-C , 14-H ) :   0.9469 
B(  4-C ,  5-C ) :   1.2691 B(  4-C , 15-H ) :   0.9499 B(  5-C ,  6-C ) :   1.2840 
B(  5-C ,  8-C ) :   0.8416 B(  6-C ,  7-C ) :   1.5589 B(  6-C , 16-H ) :   0.9579 
B(  7-C , 17-H ) :   0.9550 B(  8-C ,  9-O ) :   1.8190 B(  8-C , 10-O ) :   1.8200 


-------
TIMINGS
-------

Total SCF time: 0 days 0 hours 1 min 4 sec 

Total time                  ....      64.624 sec
Sum of individual times     ....      63.301 sec  ( 98.0%)

Fock matrix formation       ....      60.671 sec  ( 93.9%)
  Split-RI-J                ....       2.282 sec  (  3.8% of F)
  Chain of spheres X        ....      39.268 sec  ( 64.7% of F)
  XC integration            ....      13.430 sec  ( 22.1% of F)
    Basis function eval.    ....       1.281 sec  (  9.5% of XC)
    Density eval.           ....       1.973 sec  ( 14.7% of XC)
    XC-Functional eval.     ....       7.482 sec  ( 55.7% of XC)
    XC-Potential eval.      ....       1.372 sec  ( 10.2% of XC)
Diagonalization             ....       0.814 sec  (  1.3%)
Density matrix formation    ....       0.028 sec  (  0.0%)
Population analysis         ....       0.155 sec  (  0.2%)
Initial guess               ....       0.084 sec  (  0.1%)
Orbital Transformation      ....       0.000 sec  (  0.0%)
Orbital Orthonormalization  ....       0.065 sec  (  0.1%)
DIIS solution               ....       0.313 sec  (  0.5%)
Grid generation             ....       1.236 sec  (  1.9%)

Maximum memory used throughout the entire SCF-calculation: 95.1 MB

-------------------------   --------------------
FINAL SINGLE POINT ENERGY      -857.668804845279
-------------------------   --------------------

                                *** OPTIMIZATION RUN DONE ***

                            ***************************************
                            *     ORCA property calculations      *
                            ***************************************

                                    ---------------------
                                    Active property flags
                                    ---------------------
   (+) Dipole Moment


------------------------------------------------------------------------------
                       ORCA ELECTRIC PROPERTIES CALCULATION
------------------------------------------------------------------------------

Dipole Moment Calculation                       ... on
Quadrupole Moment Calculation                   ... off
Polarizability Calculation                      ... off
GBWName                                         ... /burg/berkelbach/users/eav2136/projects/peroxide_dissociation/05_range_separated_functional/wb97x-v-radical-nmf/wb97x-v-radical-nmf_opt.gbw
Electron density                                ... /burg/berkelbach/users/eav2136/projects/peroxide_dissociation/05_range_separated_functional/wb97x-v-radical-nmf/wb97x-v-radical-nmf_opt.scfp
The origin for moment calculation is the CENTER OF MASS  = ( 1.617698,  6.620840  2.152231)

-------------
DIPOLE MOMENT
-------------
                                X             Y             Z
Electronic contribution:      3.12023      -0.52933      -1.46146
Nuclear contribution   :     -3.02813       8.30711       6.90011
                        -----------------------------------------
Total Dipole Moment    :      0.09209       7.77778       5.43865
                        -----------------------------------------
Magnitude (a.u.)       :      9.49112
Magnitude (Debye)      :     24.12450



--------------------
Rotational spectrum 
--------------------
 
Rotational constants in cm-1:     0.102801     0.015365     0.013737 
Rotational constants in MHz :  3081.908727   460.633855   411.834629 

 Dipole components along the rotational axes: 
x,y,z [a.u.] :    -9.486794    -0.280267    -0.058891 
x,y,z [Debye]:   -24.113513    -0.712383    -0.149688 

 

Timings for individual modules:

Sum of individual times         ...     1448.674 sec (=  24.145 min)
GTO integral calculation        ...       11.463 sec (=   0.191 min)   0.8 %
SCF iterations                  ...     1243.375 sec (=  20.723 min)  85.8 %
SCF Gradient evaluation         ...      193.243 sec (=   3.221 min)  13.3 %
Geometry relaxation             ...        0.592 sec (=   0.010 min)   0.0 %
                             ****ORCA TERMINATED NORMALLY****
TOTAL RUN TIME: 0 days 0 hours 24 minutes 17 seconds 197 msec
