Job execution start: Fri Apr 22 11:38:34 EDT 2022
Shared library path: /cm/shared/apps/cuda11.0/toolkit/11.0.3/compat:/burg/berkelbach/users/eav2136/builds/orca/5.0.3/orca:/cm/shared/apps/ucx/1.8.1/lib64:/cm/local/apps/cuda/libs/current/lib64:/cm/shared/apps/cuda11.0/toolkit/11.0.3/targets/x86_64-linux/lib:/cm/shared/apps/cuda11.0/visual-tools/11.0.3/libnvvp:/burg/opt/openmpi-4.1.1_ucx_cuda_11.0.3_support/lib:/cm/shared/apps/slurm/current/lib64/slurm:/cm/shared/apps/slurm/current/lib64
Slurm Job ID is: 1845625
Slurm Job name is: wb97x-d-radical-dmso_opt
g068

                                 *****************
                                 * O   R   C   A *
                                 *****************

                                            #,                                       
                                            ###                                      
                                            ####                                     
                                            #####                                    
                                            ######                                   
                                           ########,                                 
                                     ,,################,,,,,                         
                               ,,#################################,,                 
                          ,,##########################################,,             
                       ,#########################################, ''#####,          
                    ,#############################################,,   '####,        
                  ,##################################################,,,,####,       
                ,###########''''           ''''###############################       
              ,#####''   ,,,,##########,,,,          '''####'''          '####       
            ,##' ,,,,###########################,,,                        '##       
           ' ,,###''''                  '''############,,,                           
         ,,##''                                '''############,,,,        ,,,,,,###''
      ,#''                                            '''#######################'''  
     '                                                          ''''####''''         
             ,#######,   #######,   ,#######,      ##                                
            ,#'     '#,  ##    ##  ,#'     '#,    #''#        ######   ,####,        
            ##       ##  ##   ,#'  ##            #'  '#       #        #'  '#        
            ##       ##  #######   ##           ,######,      #####,   #    #        
            '#,     ,#'  ##    ##  '#,     ,#' ,#      #,         ##   #,  ,#        
             '#######'   ##     ##  '#######'  #'      '#     #####' # '####'        



                  #######################################################
                  #                        -***-                        #
                  #          Department of theory and spectroscopy      #
                  #    Directorship and core code : Frank Neese         #
                  #        Max Planck Institute fuer Kohlenforschung    #
                  #                Kaiser Wilhelm Platz 1               #
                  #                 D-45470 Muelheim/Ruhr               #
                  #                      Germany                        #
                  #                                                     #
                  #                  All rights reserved                #
                  #                        -***-                        #
                  #######################################################


                         Program Version 5.0.3 -  RELEASE  -


 With contributions from (in alphabetic order):
   Daniel Aravena         : Magnetic Suceptibility
   Michael Atanasov       : Ab Initio Ligand Field Theory (pilot matlab implementation)
   Alexander A. Auer      : GIAO ZORA, VPT2 properties, NMR spectrum
   Ute Becker             : Parallelization
   Giovanni Bistoni       : ED, misc. LED, open-shell LED, HFLD
   Martin Brehm           : Molecular dynamics
   Dmytro Bykov           : SCF Hessian
   Vijay G. Chilkuri      : MRCI spin determinant printing, contributions to CSF-ICE
   Dipayan Datta          : RHF DLPNO-CCSD density
   Achintya Kumar Dutta   : EOM-CC, STEOM-CC
   Dmitry Ganyushin       : Spin-Orbit,Spin-Spin,Magnetic field MRCI
   Miquel Garcia          : C-PCM and meta-GGA Hessian, CC/C-PCM, Gaussian charge scheme
   Yang Guo               : DLPNO-NEVPT2, F12-NEVPT2, CIM, IAO-localization
   Andreas Hansen         : Spin unrestricted coupled pair/coupled cluster methods
   Benjamin Helmich-Paris : MC-RPA, TRAH-SCF, COSX integrals
   Lee Huntington         : MR-EOM, pCC
   Robert Izsak           : Overlap fitted RIJCOSX, COSX-SCS-MP3, EOM
   Marcus Kettner         : VPT2
   Christian Kollmar      : KDIIS, OOCD, Brueckner-CCSD(T), CCSD density, CASPT2, CASPT2-K
   Simone Kossmann        : Meta GGA functionals, TD-DFT gradient, OOMP2, MP2 Hessian
   Martin Krupicka        : Initial AUTO-CI
   Lucas Lang             : DCDCAS
   Marvin Lechner         : AUTO-CI (C++ implementation), FIC-MRCC
   Dagmar Lenk            : GEPOL surface, SMD
   Dimitrios Liakos       : Extrapolation schemes; Compound Job, initial MDCI parallelization
   Dimitrios Manganas     : Further ROCIS development; embedding schemes
   Dimitrios Pantazis     : SARC Basis sets
   Anastasios Papadopoulos: AUTO-CI, single reference methods and gradients
   Taras Petrenko         : DFT Hessian,TD-DFT gradient, ASA, ECA, R-Raman, ABS, FL, XAS/XES, NRVS
   Peter Pinski           : DLPNO-MP2, DLPNO-MP2 Gradient
   Christoph Reimann      : Effective Core Potentials
   Marius Retegan         : Local ZFS, SOC
   Christoph Riplinger    : Optimizer, TS searches, QM/MM, DLPNO-CCSD(T), (RO)-DLPNO pert. Triples
   Tobias Risthaus        : Range-separated hybrids, TD-DFT gradient, RPA, STAB
   Michael Roemelt        : Original ROCIS implementation
   Masaaki Saitow         : Open-shell DLPNO-CCSD energy and density
   Barbara Sandhoefer     : DKH picture change effects
   Avijit Sen             : IP-ROCIS
   Kantharuban Sivalingam : CASSCF convergence, NEVPT2, FIC-MRCI
   Bernardo de Souza      : ESD, SOC TD-DFT
   Georgi Stoychev        : AutoAux, RI-MP2 NMR, DLPNO-MP2 response
   Willem Van den Heuvel  : Paramagnetic NMR
   Boris Wezisla          : Elementary symmetry handling
   Frank Wennmohs         : Technical directorship


 We gratefully acknowledge several colleagues who have allowed us to
 interface, adapt or use parts of their codes:
   Stefan Grimme, W. Hujo, H. Kruse, P. Pracht,  : VdW corrections, initial TS optimization,
                  C. Bannwarth, S. Ehlert          DFT functionals, gCP, sTDA/sTD-DF
   Ed Valeev, F. Pavosevic, A. Kumar             : LibInt (2-el integral package), F12 methods
   Garnet Chan, S. Sharma, J. Yang, R. Olivares  : DMRG
   Ulf Ekstrom                                   : XCFun DFT Library
   Mihaly Kallay                                 : mrcc  (arbitrary order and MRCC methods)
   Jiri Pittner, Ondrej Demel                    : Mk-CCSD
   Frank Weinhold                                : gennbo (NPA and NBO analysis)
   Christopher J. Cramer and Donald G. Truhlar   : smd solvation model
   Lars Goerigk                                  : TD-DFT with DH, B97 family of functionals
   V. Asgeirsson, H. Jonsson                     : NEB implementation
   FAccTs GmbH                                   : IRC, NEB, NEB-TS, DLPNO-Multilevel, CI-OPT
                                                   MM, QMMM, 2- and 3-layer-ONIOM, Crystal-QMMM,
                                                   LR-CPCM, SF, NACMEs, symmetry and pop. for TD-DFT,
                                                   nearIR, NL-DFT gradient (VV10), updates on ESD,
                                                   ML-optimized integration grids
   S Lehtola, MJT Oliveira, MAL Marques          : LibXC Library
   Liviu Ungur et al                             : ANISO software


 Your calculation uses the libint2 library for the computation of 2-el integrals
 For citations please refer to: http://libint.valeyev.net

 Your ORCA version has been built with support for libXC version: 5.1.0
 For citations please refer to: https://tddft.org/programs/libxc/

 This ORCA versions uses:
   CBLAS   interface :  Fast vector & matrix operations
   LAPACKE interface :  Fast linear algebra routines
   SCALAPACK package :  Parallel linear algebra routines
   Shared memory     :  Shared parallel matrices
   BLAS/LAPACK       :  OpenBLAS 0.3.15  USE64BITINT DYNAMIC_ARCH NO_AFFINITY SkylakeX SINGLE_THREADED
        Core in use  :  SkylakeX
   Copyright (c) 2011-2014, The OpenBLAS Project


Your calculation utilizes the atom-pairwise dispersion correction
with the zero-damping scheme (D30)
Cite in your paper:
S.Grimme, J.Antony, S.Ehrlich and H.Krieg, J.Chem.Phys., 132, (2010), 154104 
   

Your calculation utilizes the SMD solvation module
Please cite in your paper:
A.V. Marenich, C.J. Cramer, D.G. Truhlar J. Phys. Chem. B, 113, (2009), 6378 

XCFun DFT library Copyright 2009-2010 Ulf Ekstrom and contributors.
See http://admol.org/xcfun for more information.
This is free software; see the source code for copying conditions.
There is ABSOLUTELY NO WARRANTY; not even for MERCHANTABILITY or FITNESS FOR A PARTICULAR PURPOSE.
For details see the documentation.
Scientific users of this library should cite U. Ekstrom, L. Visscher, R. Bast, A. J. Thorvaldsen and K. Ruud;
J.Chem.Theor.Comp. 2010, DOI: 10.1021/ct100117s
XCFun Version 0.99 

================================================================================

----- Orbital basis set information -----
Your calculation utilizes the basis: def2-TZVP
   F. Weigend and R. Ahlrichs, Phys. Chem. Chem. Phys. 7, 3297 (2005).

----- AuxJ basis set information -----
Your calculation utilizes the auxiliary basis: def2/J
   F. Weigend, Phys. Chem. Chem. Phys. 8, 1057 (2006).

================================================================================
                                        WARNINGS
                       Please study these warnings very carefully!
================================================================================


WARNING: Geometry Optimization
  ===> : Switching off AutoStart
         For restart on a previous wavefunction, please use MOREAD

INFO   : the flag for use of the SHARK integral package has been found!

================================================================================
                                       INPUT FILE
================================================================================
NAME = /burg/berkelbach/users/eav2136/projects/peroxide_dissociation/05_range_separated_functional/wb97x-d-radical-dmso/wb97x-d-radical-dmso_opt.inp
|  1> ! UKS wB97X-D3 def2-TZVP TIGHTSCF Opt CPCM PAL8
|  2> %maxcore 5000
|  3> %cpcm
|  4> smd true
|  5> SMDsolvent "DMSO"
|  6> end
|  7> * xyz 0 2
|  8>  C -0.07425707479814 6.45007760366319 3.54636897867849
|  9>  S 1.48979584793712 6.08048225687873 2.75598260255209
| 10>  C 1.14936654141856 4.63662227087222 1.83369205968326
| 11>  C -0.09136557109480 4.00305286554088 1.79338352444578
| 12>  C -0.25826928718407 2.84269542505768 1.05936282240646
| 13>  C 0.80050967676942 2.30271389692801 0.33923873907232
| 14>  C 2.02875697338567 2.96040825022008 0.34201900047512
| 15>  C 2.20764771123846 4.10330343094754 1.09121055149825
| 16>  C 0.66254428710301 1.09941809961861 -0.50690159852297
| 17>  O 0.00000000000000 0.00000000000000 0.00000000000000
| 18>  O 1.06713866538631 0.98717129960580 -1.62357736506780
| 19>  H 0.10416325535368 7.34607684664392 4.14087383255362
| 20>  H -0.38882275224257 5.64387294862163 4.21002028523424
| 21>  H -0.85323854703301 6.66443357654391 2.81385647784552
| 22>  H -0.93700004363157 4.40513362395569 2.33421606140266
| 23>  H -1.23507439683237 2.37497021944690 1.02749021968162
| 24>  H 2.84544686618639 2.55882587909200 -0.24576673820719
| 25>  H 3.17295340310622 4.59670965109571 1.10248346369500
| 26> *
| 27> 
| 28>                          ****END OF INPUT****
================================================================================

                       *****************************
                       * Geometry Optimization Run *
                       *****************************

Geometry optimization settings:
Update method            Update   .... BFGS
Choice of coordinates    CoordSys .... Z-matrix Internals
Initial Hessian          InHess   .... Almoef's Model

Convergence Tolerances:
Energy Change            TolE     ....  5.0000e-06 Eh
Max. Gradient            TolMAXG  ....  3.0000e-04 Eh/bohr
RMS Gradient             TolRMSG  ....  1.0000e-04 Eh/bohr
Max. Displacement        TolMAXD  ....  4.0000e-03 bohr
RMS Displacement         TolRMSD  ....  2.0000e-03 bohr
Strict Convergence                ....  False
------------------------------------------------------------------------------
                        ORCA OPTIMIZATION COORDINATE SETUP
------------------------------------------------------------------------------

The optimization will be done in new redundant internal coordinates
Making redundant internal coordinates   ...  (new redundants) done
Evaluating the initial hessian          ...  (Almloef) done
Evaluating the coordinates              ...  done
Calculating the B-matrix                .... done
Calculating the G-matrix                .... done
Diagonalizing the G-matrix              .... done
Small eigenvalue found = 1.379e-02
The first mode is                       ....   31
The number of degrees of freedom        ....   48

    -----------------------------------------------------------------
                    Redundant Internal Coordinates


    -----------------------------------------------------------------
         Definition                    Initial Value    Approx d2E/dq
    -----------------------------------------------------------------
      1. B(S   1,C   0)                  1.7910         0.386175   
      2. B(C   2,S   1)                  1.7468         0.454240   
      3. B(C   3,C   2)                  1.3937         0.616320   
      4. B(C   4,C   3)                  1.3831         0.640745   
      5. B(C   5,C   4)                  1.3897         0.625563   
      6. B(C   6,C   5)                  1.3933         0.617369   
      7. B(C   7,C   2)                  1.3985         0.605696   
      8. B(C   7,C   6)                  1.3782         0.652421   
      9. B(C   8,C   5)                  1.4775         0.453096   
     10. B(O   9,C   8)                  1.3801         0.580356   
     11. B(O  10,C   8)                  1.1930         1.153901   
     12. B(H  11,C   0)                  1.0900         0.360109   
     13. B(H  12,C   0)                  1.0906         0.359342   
     14. B(H  13,C   0)                  1.0906         0.359351   
     15. B(H  14,C   3)                  1.0813         0.371759   
     16. B(H  15,C   4)                  1.0835         0.368828   
     17. B(H  16,C   6)                  1.0834         0.368946   
     18. B(H  17,C   7)                  1.0842         0.367916   
     19. A(S   1,C   0,H  13)          111.5879         0.342618   
     20. A(S   1,C   0,H  12)          111.5859         0.342616   
     21. A(H  12,C   0,H  13)          110.3658         0.290648   
     22. A(H  11,C   0,H  12)          108.8436         0.290744   
     23. A(S   1,C   0,H  11)          105.5091         0.342738   
     24. A(H  11,C   0,H  13)          108.7656         0.290746   
     25. A(C   0,S   1,C   2)          103.4970         0.419917   
     26. A(S   1,C   2,C   7)          116.6202         0.431369   
     27. A(C   3,C   2,C   7)          119.0102         0.431786   
     28. A(S   1,C   2,C   3)          124.3692         0.432719   
     29. A(C   2,C   3,C   4)          120.2744         0.436178   
     30. A(C   4,C   3,H  14)          118.8821         0.356807   
     31. A(C   2,C   3,H  14)          120.8433         0.354461   
     32. A(C   5,C   4,H  15)          120.2581         0.354880   
     33. A(C   3,C   4,H  15)          119.1145         0.356327   
     34. A(C   3,C   4,C   5)          120.6005         0.437350   
     35. A(C   6,C   5,C   8)          117.8994         0.410112   
     36. A(C   4,C   5,C   8)          122.8259         0.411072   
     37. A(C   4,C   5,C   6)          119.1567         0.434432   
     38. A(C   7,C   6,H  16)          120.2952         0.357442   
     39. A(C   5,C   6,H  16)          119.2412         0.354107   
     40. A(C   5,C   6,C   7)          120.4618         0.437734   
     41. A(C   6,C   7,H  17)          119.9087         0.357272   
     42. A(C   2,C   7,H  17)          119.6508         0.352797   
     43. A(C   2,C   7,C   6)          120.4398         0.436231   
     44. A(O   9,C   8,O  10)          115.5727         0.473849   
     45. A(C   5,C   8,O  10)          125.5219         0.455899   
     46. A(C   5,C   8,O   9)          118.8999         0.403044   
     47. D(C   2,S   1,C   0,H  12)     61.4721         0.003898   
     48. D(C   2,S   1,C   0,H  11)    179.5234         0.003898   
     49. D(C   2,S   1,C   0,H  13)    -62.5176         0.003898   
     50. D(C   7,C   2,S   1,C   0)    179.8441         0.004531   
     51. D(C   3,C   2,S   1,C   0)      0.0768         0.004531   
     52. D(C   4,C   3,C   2,S   1)   -178.3900         0.026266   
     53. D(H  14,C   3,C   2,C   7)   -178.3097         0.026266   
     54. D(H  14,C   3,C   2,S   1)      1.4524         0.026266   
     55. D(C   4,C   3,C   2,C   7)      1.8479         0.026266   
     56. D(H  15,C   4,C   3,H  14)      1.1825         0.028529   
     57. D(H  15,C   4,C   3,C   2)   -178.9720         0.028529   
     58. D(C   5,C   4,C   3,H  14)    179.3028         0.028529   
     59. D(C   5,C   4,C   3,C   2)     -0.8517         0.028529   
     60. D(C   6,C   5,C   4,H  15)    176.7603         0.027109   
     61. D(C   6,C   5,C   4,C   3)     -1.3385         0.027109   
     62. D(C   8,C   5,C   4,H  15)      0.7946         0.027109   
     63. D(C   8,C   5,C   4,C   3)   -177.3042         0.027109   
     64. D(H  16,C   6,C   5,C   8)     -1.7852         0.026361   
     65. D(H  16,C   6,C   5,C   4)   -177.9495         0.026361   
     66. D(C   7,C   6,C   5,C   8)    178.6982         0.026361   
     67. D(C   7,C   6,C   5,C   4)      2.5338         0.026361   
     68. D(H  17,C   7,C   6,H  16)     -0.7379         0.029652   
     69. D(H  17,C   7,C   6,C   5)    178.7736         0.029652   
     70. D(C   2,C   7,C   6,H  16)    178.9472         0.029652   
     71. D(C   2,C   7,C   6,C   5)     -1.5413         0.029652   
     72. D(H  17,C   7,C   2,C   3)    179.0287         0.025317   
     73. D(H  17,C   7,C   2,S   1)     -0.7516         0.025317   
     74. D(C   6,C   7,C   2,C   3)     -0.6572         0.025317   
     75. D(C   6,C   7,C   2,S   1)    179.5625         0.025317   
     76. D(O   9,C   8,C   5,C   6)    137.7156         0.013991   
     77. D(O   9,C   8,C   5,C   4)    -46.2708         0.013991   
     78. D(O  10,C   8,C   5,C   6)    -43.1749         0.013991   
     79. D(O  10,C   8,C   5,C   4)    132.8388         0.013991   
    -----------------------------------------------------------------

Number of atoms                         .... 18
Number of degrees of freedom            .... 79

         *************************************************************
         *                GEOMETRY OPTIMIZATION CYCLE   1            *
         *************************************************************
---------------------------------
CARTESIAN COORDINATES (ANGSTROEM)
---------------------------------
  C     -0.074257    6.450078    3.546369
  S      1.489796    6.080482    2.755983
  C      1.149367    4.636622    1.833692
  C     -0.091366    4.003053    1.793384
  C     -0.258269    2.842695    1.059363
  C      0.800510    2.302714    0.339239
  C      2.028757    2.960408    0.342019
  C      2.207648    4.103303    1.091211
  C      0.662544    1.099418   -0.506902
  O      0.000000    0.000000    0.000000
  O      1.067139    0.987171   -1.623577
  H      0.104163    7.346077    4.140874
  H     -0.388823    5.643873    4.210020
  H     -0.853239    6.664434    2.813856
  H     -0.937000    4.405134    2.334216
  H     -1.235074    2.374970    1.027490
  H      2.845447    2.558826   -0.245767
  H      3.172953    4.596710    1.102483

----------------------------
CARTESIAN COORDINATES (A.U.)
----------------------------
  NO LB      ZA    FRAG     MASS         X           Y           Z
   0 C     6.0000    0    12.011   -0.140326   12.188880    6.701666
   1 S    16.0000    0    32.060    2.815306   11.490446    5.208052
   2 C     6.0000    0    12.011    2.171988    8.761946    3.465176
   3 C     6.0000    0    12.011   -0.172656    7.564674    3.389004
   4 C     6.0000    0    12.011   -0.488058    5.371916    2.001906
   5 C     6.0000    0    12.011    1.512744    4.351499    0.641068
   6 C     6.0000    0    12.011    3.833795    5.594361    0.646322
   7 C     6.0000    0    12.011    4.171850    7.754120    2.062089
   8 C     6.0000    0    12.011    1.252027    2.077599   -0.957905
   9 O     8.0000    0    15.999    0.000000    0.000000    0.000000
  10 O     8.0000    0    15.999    2.016600    1.865483   -3.068117
  11 H     1.0000    0     1.008    0.196840   13.882073    7.825117
  12 H     1.0000    0     1.008   -0.734769   10.665374    7.955785
  13 H     1.0000    0     1.008   -1.612387   12.593954    5.317418
  14 H     1.0000    0     1.008   -1.770673    8.324496    4.411029
  15 H     1.0000    0     1.008   -2.333952    4.488043    1.941675
  16 H     1.0000    0     1.008    5.377115    4.835480   -0.464432
  17 H     1.0000    0     1.008    5.996013    8.686522    2.083392

--------------------------------
INTERNAL COORDINATES (ANGSTROEM)
--------------------------------
 C      0   0   0     0.000000000000     0.00000000     0.00000000
 S      1   0   0     1.790969818017     0.00000000     0.00000000
 C      2   1   0     1.746780929995   103.49703222     0.00000000
 C      3   2   1     1.393718459520   124.36918170     0.07682297
 C      4   3   2     1.383138688329   120.27439762   181.60997218
 C      5   4   3     1.389666017657   120.60050203   359.14829865
 C      6   5   4     1.393255545064   119.15672375   358.66151732
 C      7   6   5     1.378223229504   120.46180539     2.53383799
 C      6   5   4     1.477466986255   122.82593719   182.69580816
 O      9   6   5     1.380084896203   118.89987975   313.72924568
 O      9   6   5     1.193004913083   125.52191253   132.83876530
 H      1   2   3     1.089992880213   105.50910599   179.52342869
 H      1   2   3     1.090573504139   111.58592171    61.47211732
 H      1   2   3     1.090566449636   111.58785041   297.48242808
 H      4   3   2     1.081326236832   120.84329981     1.45240478
 H      5   4   3     1.083480942612   119.11451180   181.02803207
 H      7   6   5     1.083394137146   119.24119758   182.05045369
 H      8   7   6     1.084154903776   119.90872766   178.77361985

---------------------------
INTERNAL COORDINATES (A.U.)
---------------------------
 C      0   0   0     0.000000000000     0.00000000     0.00000000
 S      1   0   0     3.384442470171     0.00000000     0.00000000
 C      2   1   0     3.300937573646   103.49703222     0.00000000
 C      3   2   1     2.633746196283   124.36918170     0.07682297
 C      4   3   2     2.613753326172   120.27439762   181.60997218
 C      5   4   3     2.626088190988   120.60050203   359.14829865
 C      6   5   4     2.632871414738   119.15672375   358.66151732
 C      7   6   5     2.604464455171   120.46180539     2.53383799
 C      6   5   4     2.792007975932   122.82593719   182.69580816
 O      9   6   5     2.607982495384   118.89987975   313.72924568
 O      9   6   5     2.254452562149   125.52191253   132.83876530
 H      1   2   3     2.059788031526   105.50910599   179.52342869
 H      1   2   3     2.060885251733   111.58592171    61.47211732
 H      1   2   3     2.060871920655   111.58785041   297.48242808
 H      4   3   2     2.043410449036   120.84329981     1.45240478
 H      5   4   3     2.047482252859   119.11451180   181.02803207
 H      7   6   5     2.047318214302   119.24119758   182.05045369
 H      8   7   6     2.048755854885   119.90872766   178.77361985

---------------------
BASIS SET INFORMATION
---------------------
There are 4 groups of distinct atoms

 Group   1 Type C   : 11s6p2d1f contracted to 5s3p2d1f pattern {62111/411/11/1}
 Group   2 Type S   : 14s9p3d1f contracted to 5s5p2d1f pattern {73211/51111/21/1}
 Group   3 Type O   : 11s6p2d1f contracted to 5s3p2d1f pattern {62111/411/11/1}
 Group   4 Type H   : 5s1p contracted to 3s1p pattern {311/1}

Atom   0C    basis set group =>   1
Atom   1S    basis set group =>   2
Atom   2C    basis set group =>   1
Atom   3C    basis set group =>   1
Atom   4C    basis set group =>   1
Atom   5C    basis set group =>   1
Atom   6C    basis set group =>   1
Atom   7C    basis set group =>   1
Atom   8C    basis set group =>   1
Atom   9O    basis set group =>   3
Atom  10O    basis set group =>   3
Atom  11H    basis set group =>   4
Atom  12H    basis set group =>   4
Atom  13H    basis set group =>   4
Atom  14H    basis set group =>   4
Atom  15H    basis set group =>   4
Atom  16H    basis set group =>   4
Atom  17H    basis set group =>   4
---------------------------------
AUXILIARY/J BASIS SET INFORMATION
---------------------------------
There are 4 groups of distinct atoms

 Group   1 Type C   : 12s5p4d2f1g contracted to 6s4p3d1f1g pattern {711111/2111/211/2/1}
 Group   2 Type S   : 14s5p5d2f1g contracted to 8s4p3d1f1g pattern {71111111/2111/311/2/1}
 Group   3 Type O   : 12s5p4d2f1g contracted to 6s4p3d1f1g pattern {711111/2111/211/2/1}
 Group   4 Type H   : 5s2p1d contracted to 3s1p1d pattern {311/2/1}

Atom   0C    basis set group =>   1
Atom   1S    basis set group =>   2
Atom   2C    basis set group =>   1
Atom   3C    basis set group =>   1
Atom   4C    basis set group =>   1
Atom   5C    basis set group =>   1
Atom   6C    basis set group =>   1
Atom   7C    basis set group =>   1
Atom   8C    basis set group =>   1
Atom   9O    basis set group =>   3
Atom  10O    basis set group =>   3
Atom  11H    basis set group =>   4
Atom  12H    basis set group =>   4
Atom  13H    basis set group =>   4
Atom  14H    basis set group =>   4
Atom  15H    basis set group =>   4
Atom  16H    basis set group =>   4
Atom  17H    basis set group =>   4


           ************************************************************
           *        Program running with 8 parallel MPI-processes     *
           *              working on a common directory               *
           ************************************************************
------------------------------------------------------------------------------
                           ORCA GTO INTEGRAL CALCULATION
                           -- RI-GTO INTEGRALS CHOSEN --
------------------------------------------------------------------------------
------------------------------------------------------------------------------
                   ___                                                        
                  /   \      - P O W E R E D   B Y -                         
                 /     \                                                     
                 |  |  |   _    _      __       _____    __    __             
                 |  |  |  | |  | |    /  \     |  _  \  |  |  /  |          
                  \  \/   | |  | |   /    \    | | | |  |  | /  /          
                 / \  \   | |__| |  /  /\  \   | |_| |  |  |/  /          
                |  |  |   |  __  | /  /__\  \  |    /   |      \           
                |  |  |   | |  | | |   __   |  |    \   |  |\   \          
                \     /   | |  | | |  |  |  |  | |\  \  |  | \   \       
                 \___/    |_|  |_| |__|  |__|  |_| \__\ |__|  \__/        
                                                                              
                      - O R C A' S   B I G   F R I E N D -                    
                                      &                                       
                       - I N T E G R A L  F E E D E R -                       
                                                                              
 v1 FN, 2020, v2 2021                                                         
------------------------------------------------------------------------------


Reading SHARK input file /burg/berkelbach/users/eav2136/projects/peroxide_dissociation/05_range_separated_functional/wb97x-d-radical-dmso/wb97x-d-radical-dmso_opt.SHARKINP.tmp ... ok
----------------------
SHARK INTEGRAL PACKAGE
----------------------

Number of atoms                             ...     18
Number of basis functions                   ...    389
Number of shells                            ...    151
Maximum angular momentum                    ...      3
Integral batch strategy                     ... SHARK/LIBINT Hybrid
RI-J (if used) integral strategy            ... SPLIT-RIJ (Revised 2003 algorithm where possible)
Printlevel                                  ...      1
Contraction scheme used                     ... SEGMENTED contraction
Coulomb Range Separation                    ... NOT USED
Exchange Range Separation                   ... Long Range
   Mu parameter                             ...  0.250000
   Scaling (regular/separated)              ...  0.195728  0.804272
Finite Nucleus Model                        ... NOT USED
Auxiliary Coulomb fitting basis             ... AVAILABLE
   # of basis functions in Aux-J            ...    618
   # of shells in Aux-J                     ...    202
   Maximum angular momentum in Aux-J        ...      4
Auxiliary J/K fitting basis                 ... NOT available
Auxiliary Correlation fitting basis         ... NOT available
Auxiliary 'external' fitting basis          ... NOT available
Integral threshold                          ...     2.500000e-11
Primitive cut-off                           ...     2.500000e-12
Primitive pair pre-selection threshold      ...     2.500000e-12

Calculating pre-screening integrals         ... done (  0.0 sec) Dimension = 151
Organizing shell pair data                  ... done (  0.3 sec)
Shell pair information
Total number of shell pairs                 ...     11476
Shell pairs after pre-screening             ...      9496
Total number of primitive shell pairs       ...     36592
Primitive shell pairs kept                  ...     21620
          la=0 lb=0:   2303 shell pairs
          la=1 lb=0:   2678 shell pairs
          la=1 lb=1:    796 shell pairs
          la=2 lb=0:   1383 shell pairs
          la=2 lb=1:    801 shell pairs
          la=2 lb=2:    220 shell pairs
          la=3 lb=0:    667 shell pairs
          la=3 lb=1:    390 shell pairs
          la=3 lb=2:    204 shell pairs
          la=3 lb=3:     54 shell pairs

Calculating one electron integrals          ... done (  0.9 sec)
Calculating RI/J V-Matrix + Cholesky decomp.... done (  0.7 sec)
Calculating Nuclear repulsion               ... done (  0.0 sec) ENN=    631.489285915085 Eh

SHARK setup successfully completed in   7.9 seconds

Maximum memory used throughout the entire GTOINT-calculation: 24.2 MB


           ************************************************************
           *        Program running with 8 parallel MPI-processes     *
           *              working on a common directory               *
           ************************************************************
-------------------------------------------------------------------------------
                                 ORCA SCF
-------------------------------------------------------------------------------

------------
SCF SETTINGS
------------
Hamiltonian:
 Density Functional     Method          .... DFT(GTOs)
 Exchange Functional    Exchange        .... WB97X-D3
 Correlation Functional Correlation     .... WB97X-D3
 Gradients option       PostSCFGGA      .... off
 Hybrid DFT is turned on
   Fraction HF Exchange ScalHFX         ....  0.195728
   Scaling of DF-GGA-X  ScalDFX         ....  0.000000
   Scaling of DF-GGA-C  ScalDFC         ....  1.000000
   Scaling of DF-LDA-C  ScalLDAC        ....  1.000000
   Perturbative correction              ....  0.000000
   Density functional embedding theory  .... OFF
 Long-range corrected/Screened/Range-Separated Hybrid DFT is turned on
   Amount of maximum screened exact exchange              ....  0.804272
   Range separation parameter mu (erf(mu*r12)/r12)        ....  0.250000
 RI-approximation to the Coulomb term is turned on
   Number of AuxJ basis functions       .... 618
   RIJ-COSX (HFX calculated with COS-X)).... on


General Settings:
 Integral files         IntName         .... /burg/berkelbach/users/eav2136/projects/peroxide_dissociation/05_range_separated_functional/wb97x-d-radical-dmso/wb97x-d-radical-dmso_opt
 Hartree-Fock type      HFTyp           .... UHF
 Total Charge           Charge          ....    0
 Multiplicity           Mult            ....    2
 Number of Electrons    NEL             ....   87
 Basis Dimension        Dim             ....  389
 Nuclear Repulsion      ENuc            ....    631.4892859151 Eh

Convergence Acceleration:
 DIIS                   CNVDIIS         .... on
   Start iteration      DIISMaxIt       ....    12
   Startup error        DIISStart       ....  0.200000
   # of expansion vecs  DIISMaxEq       ....     5
   Bias factor          DIISBfac        ....   1.050
   Max. coefficient     DIISMaxC        ....  10.000
 Trust-Rad. Augm. Hess. CNVTRAH         .... auto
   Auto Start mean grad. ratio tolernc. ....  1.125000
   Auto Start start iteration           ....    20
   Auto Start num. interpolation iter.  ....    10
   Max. Number of Micro iterations      ....    16
   Max. Number of Macro iterations      .... Maxiter - #DIIS iter
   Number of Davidson start vectors     ....     2
   Converg. threshold I  (grad. norm)   ....   1.000e-05
   Converg. threshold II (energy diff.) ....   1.000e-08
   Grad. Scal. Fac. for Micro threshold ....   0.100
   Minimum threshold for Micro iter.    ....   0.010
   NR start threshold (gradient norm)   ....   0.001
   Initial trust radius                 ....   0.400
   Minimum AH scaling param. (alpha)    ....   1.000
   Maximum AH scaling param. (alpha)    .... 1000.000
   Orbital update algorithm             .... Taylor
   White noise on init. David. guess    .... on
   Maximum white noise                  ....   0.010
   Quad. conv. algorithm                .... NR
 SOSCF                  CNVSOSCF        .... off
 Level Shifting         CNVShift        .... on
   Level shift para.    LevelShift      ....    0.2500
   Turn off err/grad.   ShiftErr        ....    0.0010
 Zerner damping         CNVZerner       .... off
 Static damping         CNVDamp         .... on
   Fraction old density DampFac         ....    0.7000
   Max. Damping (<1)    DampMax         ....    0.9800
   Min. Damping (>=0)   DampMin         ....    0.0000
   Turn off err/grad.   DampErr         ....    0.1000
 Fernandez-Rico         CNVRico         .... off

SCF Procedure:
 Maximum # iterations   MaxIter         ....   125
 SCF integral mode      SCFMode         .... Direct
   Integral package                     .... SHARK and LIBINT hybrid scheme
 Reset frequency        DirectResetFreq ....    20
 Integral Threshold     Thresh          ....  2.500e-11 Eh
 Primitive CutOff       TCut            ....  2.500e-12 Eh

Convergence Tolerance:
 Convergence Check Mode ConvCheckMode   .... Total+1el-Energy
 Convergence forced     ConvForced      .... 0
 Energy Change          TolE            ....  1.000e-08 Eh
 1-El. energy change                    ....  1.000e-05 Eh
 DIIS Error             TolErr          ....  5.000e-07


Diagonalization of the overlap matrix:
Smallest eigenvalue                        ... 7.498e-06
Time for diagonalization                   ...    0.080 sec
Threshold for overlap eigenvalues          ... 1.000e-08
Number of eigenvalues below threshold      ... 0
Time for construction of square roots      ...    0.093 sec
Total time needed                          ...    0.173 sec

Time for model grid setup =    1.605 sec

------------------------------
INITIAL GUESS: MODEL POTENTIAL
------------------------------
Loading Hartree-Fock densities                     ... done
Calculating cut-offs                               ... done
Initializing the effective Hamiltonian             ... done
Setting up the integral package (SHARK)            ... done
Starting the Coulomb interaction                   ... done (   1.1 sec)
Reading the grid                                   ... done
Mapping shells                                     ... done
Starting the XC term evaluation                    ... done (   0.8 sec)
  promolecular density results
     # of electrons  =     87.002319788
     EX              =    -84.142216924
     EC              =     -2.991987125
     EX+EC           =    -87.134204050
Transforming the Hamiltonian                       ... done (   0.0 sec)
Diagonalizing the Hamiltonian                      ... done (   0.0 sec)
Back transforming the eigenvectors                 ... done (   0.0 sec)
Now organizing SCF variables                       ... done
                      ------------------
                      INITIAL GUESS DONE (   3.6 sec)
                      ------------------
-------------------
DFT GRID GENERATION
-------------------

General Integration Accuracy     IntAcc      ... 4.388
Radial Grid Type                 RadialGrid  ... OptM3 with GC (2021)
Angular Grid (max. ang.)         AngularGrid ... 4 (Lebedev-302)
Angular grid pruning method      GridPruning ... 4 (adaptive)
Weight generation scheme         WeightScheme... Becke
Basis function cutoff            BFCut       ... 1.0000e-11
Integration weight cutoff        WCut        ... 1.0000e-14
Angular grids for H and He will be reduced by one unit
Partially contracted basis set               ... off
Rotationally invariant grid construction     ... off

Total number of grid points                  ...    90151
Total number of batches                      ...     1417
Average number of points per batch           ...       63
Average number of grid points per atom       ...     5008
Time for grid setup =    0.442 sec

--------------------
COSX GRID GENERATION
--------------------

GRIDX 1
-------
General Integration Accuracy     IntAcc      ... 3.816
Radial Grid Type                 RadialGrid  ... OptM3 with GC (2021)
Angular Grid (max. ang.)         AngularGrid ... 1 (Lebedev-50)
Angular grid pruning method      GridPruning ... 4 (adaptive)
Weight generation scheme         WeightScheme... Becke
Basis function cutoff            BFCut       ... 1.0000e-11
Integration weight cutoff        WCut        ... 1.0000e-14
Angular grids for H and He will be reduced by one unit
Partially contracted basis set               ... on
Rotationally invariant grid construction     ... off

Total number of grid points                  ...    11402
Total number of batches                      ...      186
Average number of points per batch           ...       61
Average number of grid points per atom       ...      633
UseSFitting                                  ... on

GRIDX 2
-------
General Integration Accuracy     IntAcc      ... 4.020
Radial Grid Type                 RadialGrid  ... OptM3 with GC (2021)
Angular Grid (max. ang.)         AngularGrid ... 2 (Lebedev-110)
Angular grid pruning method      GridPruning ... 4 (adaptive)
Weight generation scheme         WeightScheme... Becke
Basis function cutoff            BFCut       ... 1.0000e-11
Integration weight cutoff        WCut        ... 1.0000e-14
Angular grids for H and He will be reduced by one unit
Partially contracted basis set               ... on
Rotationally invariant grid construction     ... off

Total number of grid points                  ...    25317
Total number of batches                      ...      406
Average number of points per batch           ...       62
Average number of grid points per atom       ...     1406
UseSFitting                                  ... on

GRIDX 3
-------
General Integration Accuracy     IntAcc      ... 4.338
Radial Grid Type                 RadialGrid  ... OptM3 with GC (2021)
Angular Grid (max. ang.)         AngularGrid ... 3 (Lebedev-194)
Angular grid pruning method      GridPruning ... 4 (adaptive)
Weight generation scheme         WeightScheme... Becke
Basis function cutoff            BFCut       ... 1.0000e-11
Integration weight cutoff        WCut        ... 1.0000e-14
Angular grids for H and He will be reduced by one unit
Partially contracted basis set               ... on
Rotationally invariant grid construction     ... off

Total number of grid points                  ...    56227
Total number of batches                      ...      886
Average number of points per batch           ...       63
Average number of grid points per atom       ...     3124
UseSFitting                                  ... on

Time for X-Grid setup             =    0.572 sec


--------------------
CPCM SOLVATION MODEL
--------------------
CPCM parameters:
  Epsilon                                         ...      46.8260
  Refrac                                          ...       1.4170
  Rsolv                                           ...       1.3000
  Surface type                                    ... GAUSSIAN VDW
  Epsilon function type                           ...         CPCM
Solvent:                                     ... DMSO
SMD-CDS solvent descriptors:
  Soln                                       ...    1.4170
  Soln25                                     ...    1.4773
  Sola                                       ...    0.0000
  Solb                                       ...    0.8800
  Solg                                       ...   61.7800
  Solc                                       ...    0.0000
  Solh                                       ...    0.0000
Radii:
 Radius for C  used is    3.4960 Bohr (=   1.8500 Ang.)
 Radius for S  used is    4.7054 Bohr (=   2.4900 Ang.)
 Radius for O  used is    4.3350 Bohr (=   2.2940 Ang.)
 Radius for H  used is    2.2677 Bohr (=   1.2000 Ang.)
Calculating surface                               ...        done! (  0.0s)
GEPOL surface points                              ...          997
GEPOL Volume                                      ...    1476.6496
GEPOL Surface-area                                ...     790.7080
Calculating surface distance matrix               ...        done! (  0.0s)
Performing Cholesky decomposition & store         ...        done! (  0.0s)
Overall time for CPCM initialization              ...                 0.3s
--------------
SCF ITERATIONS
--------------
ITER       Energy         Delta-E        Max-DP      RMS-DP      [F,P]     Damp
               ***  Starting incremental Fock matrix formation  ***
  0   -857.2728958252   0.000000000000 0.20719775  0.00108587  0.1697547 0.7000
  1   -857.4448802998  -0.171984474611 0.20950047  0.00102074  0.0786158 0.7000
                               ***Turning on DIIS***
  2   -857.5237853611  -0.078905061237 0.33573866  0.00171276  0.0297578 0.0000
  3   -857.6496454510  -0.125860089923 0.17546766  0.00086339  0.0494684 0.0000
  4   -857.6749906108  -0.025345159854 0.03439425  0.00022186  0.0048367 0.0000
  5   -857.6768033668  -0.001812755943 0.02533074  0.00014822  0.0066166 0.0000
  6   -857.6776593114  -0.000855944606 0.01259998  0.00008266  0.0023034 0.0000
  7   -857.6782122989  -0.000552987473 0.01167591  0.00006935  0.0019614 0.0000
  8   -857.6785948689  -0.000382570077 0.00886831  0.00005246  0.0017545 0.0000
  9   -857.6788871043  -0.000292235366 0.00849072  0.00004796  0.0015107 0.0000
 10   -857.6791195459  -0.000232441551 0.00697266  0.00004003  0.0013009 0.0000
 11   -857.6793037875  -0.000184241612 0.00810570  0.00004348  0.0012870 0.0000
 12   -857.6794635463  -0.000159758825 0.00514767  0.00003023  0.0013679 0.0000
 13   -857.6795899060  -0.000126359661 0.00727370  0.00003862  0.0012787 0.0000
 14   -857.6797153910  -0.000125485024 0.00641503  0.00003447  0.0013331 0.0000
 15   -857.6798327910  -0.000117399976 0.00475472  0.00002564  0.0013125 0.0000
 16   -857.6799243091  -0.000091518112 0.00060335  0.00000689  0.0012681 0.0000
 17   -857.6799587043  -0.000034395202 0.00124629  0.00000650  0.0012085 0.0000
 18   -857.6799615383  -0.000002834029 0.00025467  0.00000267  0.0016909 0.0000
 19   -857.6799753260  -0.000013787707 0.00200986  0.00001040  0.0018268 0.0000
               *** Restarting incremental Fock matrix formation ***
                                   *** Resetting DIIS ***

 WARNING: the maximum gradient error descreased on average only by a factor   1.0
          during the last 20 iterations

                      *** Initiating the TRAH-SCF procedure ***


TRAH GRIDX
----------

General Integration Accuracy     IntAcc      ... 3.067
Radial Grid Type                 RadialGrid  ... OptM3 with GC (2021)
Angular Grid (max. ang.)         AngularGrid ... 1 (Lebedev-50)
Angular grid pruning method      GridPruning ... 4 (adaptive)
Weight generation scheme         WeightScheme... Becke
Basis function cutoff            BFCut       ... 1.0000e-11
Integration weight cutoff        WCut        ... 1.0000e-14
Angular grids for H and He will be reduced by one unit
Partially contracted basis set               ... on
Rotationally invariant grid construction     ... off

Total number of grid points                  ...     6144
Total number of batches                      ...      108
Average number of points per batch           ...       56
Average number of grid points per atom       ...      341


TRAH GRID
---------

General Integration Accuracy     IntAcc      ... 3.467
Radial Grid Type                 RadialGrid  ... OptM3 with GC (2021)
Angular Grid (max. ang.)         AngularGrid ... 1 (Lebedev-50)
Angular grid pruning method      GridPruning ... 4 (adaptive)
Weight generation scheme         WeightScheme... Becke
Basis function cutoff            BFCut       ... 1.0000e-11
Integration weight cutoff        WCut        ... 1.0000e-14
Angular grids for H and He will be reduced by one unit
Partially contracted basis set               ... off
Rotationally invariant grid construction     ... off

Total number of grid points                  ...    13278
Total number of batches                      ...      215
Average number of points per batch           ...       61
Average number of grid points per atom       ...      738

 --------------------------------------------------------------------------------------------
   Iter.        energy            ||Error||_2        Shift      TRadius  Mac/Mic        Rej.
 --------------------------------------------------------------------------------------------
    0       -857.680002346651     6.518913e-03                     0.400 (TRAH MAcro)   No
    0     dE    -2.498456e-05     1.423274e-02    -2.4984e-05      0.004 (TRAH MIcro)
    0     dE    -3.185046e-03     7.154760e-02    -1.2974e-02      0.361 (TRAH MIcro)
    0     dE    -4.247077e-03     1.553866e-02    -1.6040e-02      0.400 (TRAH MIcro)
    0     dE    -4.357764e-03     9.117445e-03    -1.6621e-02      0.400 (TRAH MIcro)
    0     dE    -4.383538e-03     4.520850e-03    -1.6766e-02      0.400 (TRAH MIcro)
    0     dE    -4.392356e-03     2.861398e-03    -1.6827e-02      0.400 (TRAH MIcro)
    0     dE    -4.394610e-03     1.290447e-03    -1.6840e-02      0.400 (TRAH MIcro)
    0     dE    -4.395201e-03     7.941227e-04    -1.6844e-02      0.400 (TRAH MIcro)
    0     dE    -4.395378e-03     3.743232e-04    -1.6846e-02      0.400 (TRAH MIcro)
    1       -857.685424325423     2.724412e-02                     0.480 (TRAH MAcro)   No
    1     dE    -2.732722e-04     4.632211e-02    -2.7324e-04      0.010 (TRAH MIcro)
    1     dE    -1.218667e-02     6.481140e-02    -2.7274e-02      0.480 (TRAH MIcro)
    1     dE    -1.465136e-02     2.536567e-02    -3.8135e-02      0.480 (TRAH MIcro)
    1     dE    -1.292043e-02     1.200027e-02    -4.4528e-02      0.419 (TRAH MIcro)
    1     dE    -1.307593e-02     5.566969e-03    -4.4724e-02      0.421 (TRAH MIcro)
    1     dE    -1.317651e-02     2.682078e-03    -4.4800e-02      0.423 (TRAH MIcro)
    2       -857.696523572771     2.039936e-02                     0.576 (TRAH MAcro)   No
    2     dE    -1.831214e-04     4.231623e-02    -1.8311e-04      0.009 (TRAH MIcro)
    2     dE    -2.094845e-03     6.771603e-02    -2.0502e-03      0.148 (TRAH MIcro)
    2     dE    -3.823586e-03     3.223475e-02    -3.5525e-03      0.276 (TRAH MIcro)
    2     dE    -4.421329e-03     1.759394e-02    -4.0104e-03      0.320 (TRAH MIcro)
    2     dE    -4.638080e-03     8.233468e-03    -4.1655e-03      0.337 (TRAH MIcro)
    2     dE    -4.714529e-03     6.491841e-03    -4.2192e-03      0.343 (TRAH MIcro)
    2     dE    -4.812963e-03     6.774821e-03    -4.2844e-03      0.351 (TRAH MIcro)
    2     dE    -4.878714e-03     5.437594e-03    -4.3255e-03      0.358 (TRAH MIcro)
    2     dE    -4.902282e-03     2.738280e-03    -4.3398e-03      0.360 (TRAH MIcro)
    2     dE    -4.915149e-03     1.961400e-03    -4.3468e-03      0.362 (TRAH MIcro)
    3       -857.699433504300     3.301959e-02                     0.576 (TRAH MAcro)   No
    3     dE    -3.144262e-04     5.444564e-02    -3.1440e-04      0.010 (TRAH MIcro)
    3     dE    -7.395817e-04     2.208660e-02    -7.3863e-04      0.036 (TRAH MIcro)
    3     dE    -8.577848e-04     6.236769e-03    -8.5497e-04      0.057 (TRAH MIcro)
    3     dE    -8.798095e-04     4.124779e-03    -8.7632e-04      0.063 (TRAH MIcro)
    3     dE    -8.875204e-04     1.834002e-03    -8.8375e-04      0.065 (TRAH MIcro)
    4       -857.700372389307     2.672143e-03                     0.691 (TRAH MAcro)   No
    4     dE    -7.324417e-07     5.381141e-03    -7.3244e-07      0.000 (TRAH MIcro)
    4     dE    -1.116733e-05     4.116645e-03    -1.1167e-05      0.007 (TRAH MIcro)
    4     dE    -1.813753e-05     1.815440e-03    -1.8134e-05      0.014 (TRAH MIcro)
    4     dE    -1.978796e-05     7.723291e-04    -1.9783e-05      0.016 (TRAH MIcro)
    4     dE    -2.042899e-05     5.248099e-04    -2.0423e-05      0.017 (TRAH MIcro)
    4     dE    -2.064238e-05     3.613170e-04    -2.0637e-05      0.017 (TRAH MIcro)
    4     dE    -2.080429e-05     2.830770e-04    -2.0798e-05      0.017 (TRAH MIcro)
    4     dE    -2.084540e-05     1.441570e-04    -2.0839e-05      0.017 (TRAH MIcro)
    5       -857.700393591208     2.178421e-04                           (NR   MAcro)
    5     dE    -1.943875e-08     6.975977e-05                           (NR   MIcro)
    5     dE    -2.863083e-08     8.034282e-05                           (NR   MIcro)
    5     dE    -3.198132e-08     4.532202e-05                           (NR   MIcro)
    5     dE    -3.414850e-08     4.070560e-05                           (NR   MIcro)
    5     dE    -3.572658e-08     3.434071e-05                           (NR   MIcro)
    5     dE    -3.661978e-08     2.272401e-05                           (NR   MIcro)
    5     dE    -3.714558e-08     2.122830e-05                           (NR   MIcro)
    5     dE    -3.750402e-08     1.456046e-05                           (NR   MIcro)
    5     dE    -3.768769e-08     1.199843e-05                           (NR   MIcro)
    5     dE    -3.784218e-08     1.068805e-05                           (NR   MIcro)
    5     dE    -3.791009e-08     5.905352e-06                           (NR   MIcro)
    5     dE    -3.793525e-08     3.557970e-06                           (NR   MIcro)
    5     dE    -3.794324e-08     2.020520e-06                           (NR   MIcro)
    5     dE    -3.794473e-08     5.659955e-07                           (NR   MIcro)
    6       -857.700393630335     2.837333e-06                           (NR   MAcro)
    6     dE    -2.023385e-12     5.927596e-07                           (NR   MIcro)
    7       -857.700393630322     5.964424e-07                           (NR   MAcro)

               *****************************************************
               *                     SUCCESS                       *
               *           SCF CONVERGED AFTER  81 CYCLES          *
               *****************************************************

Old exchange energy                            =    -26.079260977 Eh
New exchange energy                            =    -26.079248483 Eh
Exchange energy change after final integration =      0.000012494 Eh
Total energy after final integration           =   -857.700381136 Eh
Final COS-X integration done in                =     9.760 sec

SMD CDS free energy correction energy :                -2.11985     Kcal/mol
Total Energy after SMD CDS correction =              -857.703759335 Eh

----------------
TOTAL SCF ENERGY
----------------

Total Energy       :         -857.70375934 Eh          -23339.30584 eV

Components:
Nuclear Repulsion  :          631.48928592 Eh           17183.69707 eV
Electronic Energy  :        -1489.19304525 Eh          -40523.00291 eV
One Electron Energy:        -2426.93114493 Eh          -66040.15387 eV
Two Electron Energy:          937.73809968 Eh           25517.15096 eV
Max COSX asymmetry :            0.00000040 Eh               0.00001 eV
CPCM Dielectric    :           -0.01457482 Eh              -0.39660 eV
SMD CDS (Gcds)     :           -0.00337820 Eh              -0.09193 eV

Virial components:
Potential Energy   :        -1712.78610558 Eh          -46607.27940 eV
Kinetic Energy     :          855.08234625 Eh           23267.97356 eV
Virial Ratio       :            2.00306568


DFT components:
N(Alpha)           :       44.000018600505 electrons
N(Beta)            :       43.000017873690 electrons
N(Total)           :       87.000036474195 electrons
E(XC)              :      -62.724308494915 Eh       
DFET-embed. en.    :        0.000000000000 Eh       
CPCM Solvation Model Properties:
Surface-charge          :           -0.02269130
Charge-correction       :            0.00030924 Eh               0.00841 eV
Free-energy (cav+disp)  :           -0.00337820 Eh              -0.09193 eV

---------------
SCF CONVERGENCE
---------------

  Last Energy change         ...    1.3415e-11  Tolerance :   1.0000e-08
  Last Orbital Gradient      ...    5.9644e-07  Tolerance :   1.0000e-05
  Last Orbital Rotation      ...    1.0948e-06

             **** THE GBW FILE WAS UPDATED (/burg/berkelbach/users/eav2136/projects/peroxide_dissociation/05_range_separated_functional/wb97x-d-radical-dmso/wb97x-d-radical-dmso_opt.gbw) ****
             **** DENSITY /burg/berkelbach/users/eav2136/projects/peroxide_dissociation/05_range_separated_functional/wb97x-d-radical-dmso/wb97x-d-radical-dmso_opt.scfp WAS UPDATED ****
             **** ENERGY FILE WAS UPDATED (/burg/berkelbach/users/eav2136/projects/peroxide_dissociation/05_range_separated_functional/wb97x-d-radical-dmso/wb97x-d-radical-dmso_opt.en.tmp) ****
----------------------
UHF SPIN CONTAMINATION
----------------------

Warning: in a DFT calculation there is little theoretical justification to 
         calculate <S**2> as in Hartree-Fock theory. We will do it anyways
         but you should keep in mind that the values have only limited relevance

Expectation value of <S**2>     :     0.755832
Ideal value S*(S+1) for S=0.5   :     0.750000
Deviation                       :     0.005832

             **** THE GBW FILE WAS UPDATED (/burg/berkelbach/users/eav2136/projects/peroxide_dissociation/05_range_separated_functional/wb97x-d-radical-dmso/wb97x-d-radical-dmso_opt.gbw) ****
             **** DENSITY /burg/berkelbach/users/eav2136/projects/peroxide_dissociation/05_range_separated_functional/wb97x-d-radical-dmso/wb97x-d-radical-dmso_opt.scfp WAS UPDATED ****
----------------
ORBITAL ENERGIES
----------------
                 SPIN UP ORBITALS
  NO   OCC          E(Eh)            E(eV) 
   0   1.0000     -88.959097     -2420.7001 
   1   1.0000     -19.328523      -525.9559 
   2   1.0000     -19.251816      -523.8685 
   3   1.0000     -10.430081      -283.8169 
   4   1.0000     -10.331053      -281.1222 
   5   1.0000     -10.307266      -280.4750 
   6   1.0000     -10.301640      -280.3219 
   7   1.0000     -10.299485      -280.2632 
   8   1.0000     -10.296272      -280.1758 
   9   1.0000     -10.291674      -280.0507 
  10   1.0000     -10.290447      -280.0173 
  11   1.0000      -8.056177      -219.2197 
  12   1.0000      -6.010066      -163.5422 
  13   1.0000      -6.005948      -163.4302 
  14   1.0000      -6.001616      -163.3123 
  15   1.0000      -1.240383       -33.7525 
  16   1.0000      -1.140961       -31.0471 
  17   1.0000      -1.006646       -27.3922 
  18   1.0000      -0.938526       -25.5386 
  19   1.0000      -0.883028       -24.0284 
  20   1.0000      -0.874274       -23.7902 
  21   1.0000      -0.789389       -21.4804 
  22   1.0000      -0.738180       -20.0869 
  23   1.0000      -0.719757       -19.5856 
  24   1.0000      -0.680301       -18.5119 
  25   1.0000      -0.644084       -17.5264 
  26   1.0000      -0.598674       -16.2907 
  27   1.0000      -0.585196       -15.9240 
  28   1.0000      -0.582123       -15.8404 
  29   1.0000      -0.557816       -15.1790 
  30   1.0000      -0.554248       -15.0819 
  31   1.0000      -0.535717       -14.5776 
  32   1.0000      -0.532123       -14.4798 
  33   1.0000      -0.515408       -14.0250 
  34   1.0000      -0.498021       -13.5518 
  35   1.0000      -0.491122       -13.3641 
  36   1.0000      -0.466340       -12.6898 
  37   1.0000      -0.450730       -12.2650 
  38   1.0000      -0.444988       -12.1087 
  39   1.0000      -0.420338       -11.4380 
  40   1.0000      -0.412486       -11.2243 
  41   1.0000      -0.394733       -10.7412 
  42   1.0000      -0.359672        -9.7872 
  43   1.0000      -0.304320        -8.2810 
  44   0.0000       0.020392         0.5549 
  45   0.0000       0.050489         1.3739 
  46   0.0000       0.101653         2.7661 
  47   0.0000       0.108673         2.9572 
  48   0.0000       0.136408         3.7118 
  49   0.0000       0.157486         4.2854 
  50   0.0000       0.167997         4.5714 
  51   0.0000       0.172536         4.6949 
  52   0.0000       0.186538         5.0760 
  53   0.0000       0.191758         5.2180 
  54   0.0000       0.195739         5.3263 
  55   0.0000       0.210743         5.7346 
  56   0.0000       0.216797         5.8994 
  57   0.0000       0.224777         6.1165 
  58   0.0000       0.227340         6.1862 
  59   0.0000       0.252685         6.8759 
  60   0.0000       0.255669         6.9571 
  61   0.0000       0.279646         7.6096 
  62   0.0000       0.295249         8.0341 
  63   0.0000       0.297532         8.0963 
  64   0.0000       0.301463         8.2032 
  65   0.0000       0.307968         8.3802 
  66   0.0000       0.314388         8.5549 
  67   0.0000       0.319407         8.6915 
  68   0.0000       0.328104         8.9282 
  69   0.0000       0.333748         9.0818 
  70   0.0000       0.338112         9.2005 
  71   0.0000       0.360993         9.8231 
  72   0.0000       0.366057         9.9609 
  73   0.0000       0.376135        10.2351 
  74   0.0000       0.387077        10.5329 
  75   0.0000       0.399118        10.8606 
  76   0.0000       0.401261        10.9189 
  77   0.0000       0.420593        11.4449 
  78   0.0000       0.425859        11.5882 
  79   0.0000       0.431670        11.7464 
  80   0.0000       0.443689        12.0734 
  81   0.0000       0.444815        12.1040 
  82   0.0000       0.460601        12.5336 
  83   0.0000       0.472794        12.8654 
  84   0.0000       0.484569        13.1858 
  85   0.0000       0.492707        13.4072 
  86   0.0000       0.494125        13.4458 
  87   0.0000       0.498020        13.5518 
  88   0.0000       0.508487        13.8366 
  89   0.0000       0.514230        13.9929 
  90   0.0000       0.521432        14.1889 
  91   0.0000       0.527527        14.3547 
  92   0.0000       0.540427        14.7058 
  93   0.0000       0.547741        14.9048 
  94   0.0000       0.558216        15.1898 
  95   0.0000       0.563726        15.3398 
  96   0.0000       0.574270        15.6267 
  97   0.0000       0.585517        15.9327 
  98   0.0000       0.594881        16.1875 
  99   0.0000       0.605267        16.4702 
 100   0.0000       0.622954        16.9514 
 101   0.0000       0.632354        17.2072 
 102   0.0000       0.641284        17.4502 
 103   0.0000       0.649568        17.6756 
 104   0.0000       0.659157        17.9366 
 105   0.0000       0.668390        18.1878 
 106   0.0000       0.671352        18.2684 
 107   0.0000       0.699278        19.0283 
 108   0.0000       0.711516        19.3613 
 109   0.0000       0.719629        19.5821 
 110   0.0000       0.738258        20.0890 
 111   0.0000       0.747357        20.3366 
 112   0.0000       0.763166        20.7668 
 113   0.0000       0.774733        21.0816 
 114   0.0000       0.775854        21.1121 
 115   0.0000       0.791607        21.5407 
 116   0.0000       0.811789        22.0899 
 117   0.0000       0.827261        22.5109 
 118   0.0000       0.832886        22.6640 
 119   0.0000       0.849981        23.1292 
 120   0.0000       0.857156        23.3244 
 121   0.0000       0.863134        23.4871 
 122   0.0000       0.890008        24.2183 
 123   0.0000       0.900339        24.4995 
 124   0.0000       0.923362        25.1259 
 125   0.0000       0.930169        25.3112 
 126   0.0000       0.932372        25.3711 
 127   0.0000       0.939849        25.5746 
 128   0.0000       0.970345        26.4044 
 129   0.0000       0.986993        26.8574 
 130   0.0000       1.004468        27.3330 
 131   0.0000       1.012204        27.5435 
 132   0.0000       1.019163        27.7328 
 133   0.0000       1.034457        28.1490 
 134   0.0000       1.049478        28.5577 
 135   0.0000       1.060065        28.8458 
 136   0.0000       1.074708        29.2443 
 137   0.0000       1.082190        29.4479 
 138   0.0000       1.105740        30.0887 
 139   0.0000       1.124788        30.6070 
 140   0.0000       1.131903        30.8007 
 141   0.0000       1.165179        31.7061 
 142   0.0000       1.210585        32.9417 
 143   0.0000       1.230640        33.4874 
 144   0.0000       1.246845        33.9284 
 145   0.0000       1.252697        34.0876 
 146   0.0000       1.289276        35.0830 
 147   0.0000       1.304385        35.4941 
 148   0.0000       1.318634        35.8819 
 149   0.0000       1.330456        36.2035 
 150   0.0000       1.339637        36.4534 
 151   0.0000       1.345408        36.6104 
 152   0.0000       1.378771        37.5183 
 153   0.0000       1.386051        37.7164 
 154   0.0000       1.418140        38.5896 
 155   0.0000       1.424358        38.7588 
 156   0.0000       1.443412        39.2772 
 157   0.0000       1.454196        39.5707 
 158   0.0000       1.504659        40.9438 
 159   0.0000       1.531608        41.6772 
 160   0.0000       1.549709        42.1697 
 161   0.0000       1.563308        42.5398 
 162   0.0000       1.566929        42.6383 
 163   0.0000       1.579816        42.9890 
 164   0.0000       1.591423        43.3048 
 165   0.0000       1.600014        43.5386 
 166   0.0000       1.604473        43.6599 
 167   0.0000       1.605683        43.6928 
 168   0.0000       1.624747        44.2116 
 169   0.0000       1.635285        44.4984 
 170   0.0000       1.641086        44.6562 
 171   0.0000       1.648241        44.8509 
 172   0.0000       1.651140        44.9298 
 173   0.0000       1.670861        45.4664 
 174   0.0000       1.683337        45.8059 
 175   0.0000       1.694415        46.1074 
 176   0.0000       1.699440        46.2441 
 177   0.0000       1.716432        46.7065 
 178   0.0000       1.737560        47.2814 
 179   0.0000       1.751921        47.6722 
 180   0.0000       1.769641        48.1544 
 181   0.0000       1.780341        48.4455 
 182   0.0000       1.782333        48.4997 
 183   0.0000       1.790582        48.7242 
 184   0.0000       1.810434        49.2644 
 185   0.0000       1.822258        49.5862 
 186   0.0000       1.859981        50.6127 
 187   0.0000       1.872097        50.9424 
 188   0.0000       1.897290        51.6279 
 189   0.0000       1.918090        52.1939 
 190   0.0000       1.925532        52.3964 
 191   0.0000       1.934276        52.6343 
 192   0.0000       1.944248        52.9057 
 193   0.0000       1.949676        53.0534 
 194   0.0000       1.957928        53.2779 
 195   0.0000       1.965569        53.4859 
 196   0.0000       1.974439        53.7272 
 197   0.0000       2.001448        54.4622 
 198   0.0000       2.014134        54.8074 
 199   0.0000       2.035785        55.3965 
 200   0.0000       2.068502        56.2868 
 201   0.0000       2.100603        57.1603 
 202   0.0000       2.113862        57.5211 
 203   0.0000       2.131851        58.0106 
 204   0.0000       2.151414        58.5430 
 205   0.0000       2.164900        58.9099 
 206   0.0000       2.172424        59.1147 
 207   0.0000       2.181770        59.3690 
 208   0.0000       2.196603        59.7726 
 209   0.0000       2.220644        60.4268 
 210   0.0000       2.231248        60.7154 
 211   0.0000       2.258119        61.4465 
 212   0.0000       2.273497        61.8650 
 213   0.0000       2.278981        62.0142 
 214   0.0000       2.307295        62.7847 
 215   0.0000       2.326828        63.3162 
 216   0.0000       2.330957        63.4286 
 217   0.0000       2.346099        63.8406 
 218   0.0000       2.357346        64.1467 
 219   0.0000       2.403948        65.4148 
 220   0.0000       2.427739        66.0621 
 221   0.0000       2.444147        66.5086 
 222   0.0000       2.452486        66.7355 
 223   0.0000       2.494371        67.8753 
 224   0.0000       2.505010        68.1648 
 225   0.0000       2.517218        68.4970 
 226   0.0000       2.539652        69.1074 
 227   0.0000       2.610500        71.0353 
 228   0.0000       2.632899        71.6448 
 229   0.0000       2.644994        71.9739 
 230   0.0000       2.661574        72.4251 
 231   0.0000       2.674398        72.7741 
 232   0.0000       2.680929        72.9518 
 233   0.0000       2.699984        73.4703 
 234   0.0000       2.707722        73.6809 
 235   0.0000       2.726267        74.1855 
 236   0.0000       2.732646        74.3591 
 237   0.0000       2.742354        74.6232 
 238   0.0000       2.776642        75.5563 
 239   0.0000       2.779299        75.6286 
 240   0.0000       2.789722        75.9122 
 241   0.0000       2.808103        76.4124 
 242   0.0000       2.831421        77.0469 
 243   0.0000       2.837570        77.2142 
 244   0.0000       2.845145        77.4203 
 245   0.0000       2.849364        77.5351 
 246   0.0000       2.873079        78.1805 
 247   0.0000       2.891664        78.6862 
 248   0.0000       2.909428        79.1696 
 249   0.0000       2.925912        79.6181 
 250   0.0000       2.938100        79.9498 
 251   0.0000       2.954132        80.3860 
 252   0.0000       2.974341        80.9359 
 253   0.0000       2.982299        81.1525 
 254   0.0000       2.999465        81.6196 
 255   0.0000       3.014163        82.0195 
 256   0.0000       3.034552        82.5744 
 257   0.0000       3.040748        82.7430 
 258   0.0000       3.056985        83.1848 
 259   0.0000       3.064067        83.3775 
 260   0.0000       3.085687        83.9658 
 261   0.0000       3.096442        84.2585 
 262   0.0000       3.106779        84.5398 
 263   0.0000       3.127783        85.1113 
 264   0.0000       3.135953        85.3336 
 265   0.0000       3.139618        85.4334 
 266   0.0000       3.171111        86.2903 
 267   0.0000       3.204276        87.1928 
 268   0.0000       3.208805        87.3160 
 269   0.0000       3.220596        87.6369 
 270   0.0000       3.228868        87.8620 
 271   0.0000       3.238480        88.1235 
 272   0.0000       3.251057        88.4658 
 273   0.0000       3.260327        88.7180 
 274   0.0000       3.271611        89.0251 
 275   0.0000       3.292639        89.5973 
 276   0.0000       3.302847        89.8750 
 277   0.0000       3.334738        90.7428 
 278   0.0000       3.352521        91.2267 
 279   0.0000       3.354993        91.2940 
 280   0.0000       3.372390        91.7674 
 281   0.0000       3.389490        92.2327 
 282   0.0000       3.403464        92.6130 
 283   0.0000       3.424704        93.1909 
 284   0.0000       3.441968        93.6607 
 285   0.0000       3.444859        93.7394 
 286   0.0000       3.449209        93.8578 
 287   0.0000       3.467632        94.3591 
 288   0.0000       3.480502        94.7093 
 289   0.0000       3.488302        94.9215 
 290   0.0000       3.491290        95.0028 
 291   0.0000       3.512370        95.5764 
 292   0.0000       3.518098        95.7323 
 293   0.0000       3.556011        96.7640 
 294   0.0000       3.559874        96.8691 
 295   0.0000       3.573280        97.2339 
 296   0.0000       3.583661        97.5164 
 297   0.0000       3.586318        97.5887 
 298   0.0000       3.606040        98.1253 
 299   0.0000       3.631267        98.8118 
 300   0.0000       3.637297        98.9759 
 301   0.0000       3.653451        99.4155 
 302   0.0000       3.673470        99.9602 
 303   0.0000       3.685144       100.2779 
 304   0.0000       3.729883       101.4953 
 305   0.0000       3.749490       102.0288 
 306   0.0000       3.768292       102.5404 
 307   0.0000       3.803652       103.5026 
 308   0.0000       3.835087       104.3580 
 309   0.0000       3.868377       105.2639 
 310   0.0000       3.877405       105.5096 
 311   0.0000       3.917940       106.6126 
 312   0.0000       3.946827       107.3986 
 313   0.0000       3.993722       108.6747 
 314   0.0000       4.003178       108.9320 
 315   0.0000       4.023843       109.4943 
 316   0.0000       4.065350       110.6238 
 317   0.0000       4.125667       112.2651 
 318   0.0000       4.155679       113.0818 
 319   0.0000       4.209539       114.5474 
 320   0.0000       4.255353       115.7940 
 321   0.0000       4.269451       116.1777 
 322   0.0000       4.286057       116.6295 
 323   0.0000       4.294291       116.8536 
 324   0.0000       4.300562       117.0242 
 325   0.0000       4.324782       117.6833 
 326   0.0000       4.344042       118.2074 
 327   0.0000       4.363988       118.7502 
 328   0.0000       4.381084       119.2154 
 329   0.0000       4.403792       119.8333 
 330   0.0000       4.431380       120.5840 
 331   0.0000       4.462052       121.4186 
 332   0.0000       4.515956       122.8854 
 333   0.0000       4.528196       123.2185 
 334   0.0000       4.564265       124.2000 
 335   0.0000       4.604195       125.2865 
 336   0.0000       4.644839       126.3925 
 337   0.0000       4.746946       129.1710 
 338   0.0000       4.754482       129.3760 
 339   0.0000       4.777612       130.0054 
 340   0.0000       4.796023       130.5064 
 341   0.0000       4.961071       134.9976 
 342   0.0000       5.023684       136.7014 
 343   0.0000       5.037874       137.0875 
 344   0.0000       5.073780       138.0646 
 345   0.0000       5.162439       140.4771 
 346   0.0000       5.168127       140.6319 
 347   0.0000       5.215704       141.9265 
 348   0.0000       5.223563       142.1404 
 349   0.0000       5.260022       143.1325 
 350   0.0000       5.289026       143.9217 
 351   0.0000       5.308703       144.4571 
 352   0.0000       5.419718       147.4780 
 353   0.0000       5.451775       148.3503 
 354   0.0000       5.531568       150.5216 
 355   0.0000       5.570497       151.5809 
 356   0.0000       5.607161       152.5786 
 357   0.0000       5.656333       153.9167 
 358   0.0000       5.708880       155.3465 
 359   0.0000       5.803189       157.9128 
 360   0.0000       5.926474       161.2676 
 361   0.0000       6.118346       166.4887 
 362   0.0000       6.260106       170.3462 
 363   0.0000       6.346948       172.7092 
 364   0.0000       6.429128       174.9455 
 365   0.0000       6.462571       175.8555 
 366   0.0000       6.485621       176.4827 
 367   0.0000       6.591174       179.3550 
 368   0.0000       6.772772       184.2965 
 369   0.0000       6.783173       184.5795 
 370   0.0000       6.902560       187.8282 
 371   0.0000       6.922772       188.3782 
 372   0.0000       7.071841       192.4346 
 373   0.0000       7.175952       195.2676 
 374   0.0000       7.194452       195.7710 
 375   0.0000       9.005648       245.0561 
 376   0.0000       9.458459       257.3778 
 377   0.0000       9.625890       261.9338 
 378   0.0000      20.183769       549.2283 
 379   0.0000      22.059247       600.2626 
 380   0.0000      22.305904       606.9745 
 381   0.0000      22.775811       619.7613 
 382   0.0000      22.789456       620.1326 
 383   0.0000      22.839799       621.5025 
 384   0.0000      22.919560       623.6729 
 385   0.0000      23.270767       633.2298 
 386   0.0000      23.412191       637.0781 
 387   0.0000      43.693979      1188.9736 
 388   0.0000      43.911688      1194.8978 

                 SPIN DOWN ORBITALS
  NO   OCC          E(Eh)            E(eV) 
   0   1.0000     -88.959046     -2420.6987 
   1   1.0000     -19.309795      -525.4462 
   2   1.0000     -19.248897      -523.7891 
   3   1.0000     -10.430686      -283.8334 
   4   1.0000     -10.330854      -281.1168 
   5   1.0000     -10.307180      -280.4726 
   6   1.0000     -10.301454      -280.3168 
   7   1.0000     -10.299334      -280.2591 
   8   1.0000     -10.296276      -280.1759 
   9   1.0000     -10.291715      -280.0518 
  10   1.0000     -10.290564      -280.0205 
  11   1.0000      -8.056133      -219.2185 
  12   1.0000      -6.010039      -163.5415 
  13   1.0000      -6.005921      -163.4294 
  14   1.0000      -6.001451      -163.3078 
  15   1.0000      -1.220791       -33.2194 
  16   1.0000      -1.092058       -29.7164 
  17   1.0000      -1.005803       -27.3693 
  18   1.0000      -0.937415       -25.5084 
  19   1.0000      -0.882613       -24.0171 
  20   1.0000      -0.873116       -23.7587 
  21   1.0000      -0.787456       -21.4278 
  22   1.0000      -0.737587       -20.0708 
  23   1.0000      -0.716107       -19.4863 
  24   1.0000      -0.676588       -18.4109 
  25   1.0000      -0.619533       -16.8584 
  26   1.0000      -0.594963       -16.1898 
  27   1.0000      -0.577312       -15.7095 
  28   1.0000      -0.568778       -15.4772 
  29   1.0000      -0.555094       -15.1049 
  30   1.0000      -0.547408       -14.8957 
  31   1.0000      -0.532823       -14.4989 
  32   1.0000      -0.531717       -14.4688 
  33   1.0000      -0.504122       -13.7179 
  34   1.0000      -0.494627       -13.4595 
  35   1.0000      -0.469597       -12.7784 
  36   1.0000      -0.450220       -12.2511 
  37   1.0000      -0.425681       -11.5834 
  38   1.0000      -0.418822       -11.3967 
  39   1.0000      -0.400187       -10.8896 
  40   1.0000      -0.391918       -10.6646 
  41   1.0000      -0.359062        -9.7706 
  42   1.0000      -0.304228        -8.2785 
  43   0.0000      -0.100809        -2.7431 
  44   0.0000       0.023986         0.6527 
  45   0.0000       0.051697         1.4068 
  46   0.0000       0.102943         2.8012 
  47   0.0000       0.109168         2.9706 
  48   0.0000       0.136805         3.7227 
  49   0.0000       0.157651         4.2899 
  50   0.0000       0.168713         4.5909 
  51   0.0000       0.173455         4.7200 
  52   0.0000       0.186864         5.0848 
  53   0.0000       0.192039         5.2256 
  54   0.0000       0.196014         5.3338 
  55   0.0000       0.211427         5.7532 
  56   0.0000       0.217447         5.9170 
  57   0.0000       0.226429         6.1614 
  58   0.0000       0.227681         6.1955 
  59   0.0000       0.253620         6.9013 
  60   0.0000       0.258703         7.0397 
  61   0.0000       0.280016         7.6196 
  62   0.0000       0.297046         8.0830 
  63   0.0000       0.298750         8.1294 
  64   0.0000       0.301957         8.2167 
  65   0.0000       0.310343         8.4449 
  66   0.0000       0.315752         8.5920 
  67   0.0000       0.320710         8.7270 
  68   0.0000       0.329016         8.9530 
  69   0.0000       0.335142         9.1197 
  70   0.0000       0.338862         9.2209 
  71   0.0000       0.361681         9.8418 
  72   0.0000       0.366752         9.9798 
  73   0.0000       0.376890        10.2557 
  74   0.0000       0.388120        10.5613 
  75   0.0000       0.399331        10.8663 
  76   0.0000       0.402812        10.9611 
  77   0.0000       0.421698        11.4750 
  78   0.0000       0.426643        11.6096 
  79   0.0000       0.432297        11.7634 
  80   0.0000       0.445057        12.1106 
  81   0.0000       0.447365        12.1734 
  82   0.0000       0.460837        12.5400 
  83   0.0000       0.473419        12.8824 
  84   0.0000       0.485221        13.2035 
  85   0.0000       0.494572        13.4580 
  86   0.0000       0.495198        13.4750 
  87   0.0000       0.498419        13.5627 
  88   0.0000       0.509203        13.8561 
  89   0.0000       0.515284        14.0216 
  90   0.0000       0.521786        14.1985 
  91   0.0000       0.529666        14.4130 
  92   0.0000       0.542074        14.7506 
  93   0.0000       0.549719        14.9586 
  94   0.0000       0.558494        15.1974 
  95   0.0000       0.564753        15.3677 
  96   0.0000       0.575198        15.6519 
  97   0.0000       0.588480        16.0134 
  98   0.0000       0.596388        16.2285 
  99   0.0000       0.606648        16.5077 
 100   0.0000       0.627537        17.0762 
 101   0.0000       0.634306        17.2604 
 102   0.0000       0.650448        17.6996 
 103   0.0000       0.651552        17.7296 
 104   0.0000       0.661599        18.0030 
 105   0.0000       0.670371        18.2417 
 106   0.0000       0.672126        18.2895 
 107   0.0000       0.700910        19.0727 
 108   0.0000       0.711949        19.3731 
 109   0.0000       0.721394        19.6301 
 110   0.0000       0.741031        20.1645 
 111   0.0000       0.748298        20.3622 
 112   0.0000       0.765432        20.8285 
 113   0.0000       0.775409        21.0999 
 114   0.0000       0.777193        21.1485 
 115   0.0000       0.793314        21.5872 
 116   0.0000       0.812168        22.1002 
 117   0.0000       0.827823        22.5262 
 118   0.0000       0.835686        22.7402 
 119   0.0000       0.850973        23.1561 
 120   0.0000       0.857608        23.3367 
 121   0.0000       0.864754        23.5311 
 122   0.0000       0.890196        24.2235 
 123   0.0000       0.901461        24.5300 
 124   0.0000       0.924158        25.1476 
 125   0.0000       0.932042        25.3622 
 126   0.0000       0.933076        25.3903 
[...]
      pz      :     0.950304  p :     2.959309
      px      :     1.000807
      py      :     1.008199
      dz2     :     0.038606  d :     0.377527
      dxz     :     0.078839
      dyz     :     0.055016
      dx2y2   :     0.094323
      dxy     :     0.110743
      f0      :     0.004741  f :     0.043376
      f+1     :     0.002434
      f-1     :     0.005879
      f+2     :     0.005857
      f-2     :     0.007194
      f+3     :     0.010933
      f-3     :     0.006339
  4 C s       :     2.753429  s :     2.753429
      pz      :     0.915736  p :     2.881803
      px      :     0.986292
      py      :     0.979775
      dz2     :     0.083986  d :     0.391993
      dxz     :     0.051926
      dyz     :     0.063876
      dx2y2   :     0.082208
      dxy     :     0.109998
      f0      :     0.003339  f :     0.044428
      f+1     :     0.006214
      f-1     :     0.005812
      f+2     :     0.007103
      f-2     :     0.007317
      f+3     :     0.008090
      f-3     :     0.006554
  5 C s       :     2.698402  s :     2.698402
      pz      :     0.936193  p :     2.912472
      px      :     1.030238
      py      :     0.946042
      dz2     :     0.057924  d :     0.489306
      dxz     :     0.097147
      dyz     :     0.079428
      dx2y2   :     0.140945
      dxy     :     0.113861
      f0      :     0.006055  f :     0.056391
      f+1     :     0.005730
      f-1     :     0.005290
      f+2     :     0.008171
      f-2     :     0.009506
      f+3     :     0.014467
      f-3     :     0.007171
  6 C s       :     2.753172  s :     2.753172
      pz      :     0.908294  p :     2.887891
      px      :     0.991933
      py      :     0.987664
      dz2     :     0.040903  d :     0.391005
      dxz     :     0.084084
      dyz     :     0.059275
      dx2y2   :     0.099246
      dxy     :     0.107497
      f0      :     0.005123  f :     0.044546
      f+1     :     0.002354
      f-1     :     0.006256
      f+2     :     0.005935
      f-2     :     0.007317
      f+3     :     0.011332
      f-3     :     0.006230
  7 C s       :     2.759230  s :     2.759230
      pz      :     0.962302  p :     2.957457
      px      :     0.987313
      py      :     1.007841
      dz2     :     0.069990  d :     0.381182
      dxz     :     0.053730
      dyz     :     0.066374
      dx2y2   :     0.081797
      dxy     :     0.109291
      f0      :     0.003461  f :     0.043454
      f+1     :     0.005316
      f-1     :     0.005841
      f+2     :     0.007279
      f-2     :     0.007499
      f+3     :     0.008050
      f-3     :     0.006008
  8 C s       :     2.752485  s :     2.752485
      pz      :     0.798242  p :     2.613007
      px      :     0.887906
      py      :     0.926859
      dz2     :     0.143345  d :     0.991630
      dxz     :     0.209173
      dyz     :     0.131786
      dx2y2   :     0.269345
      dxy     :     0.237981
      f0      :     0.017564  f :     0.157866
      f+1     :     0.022134
      f-1     :     0.011769
      f+2     :     0.015250
      f-2     :     0.028632
      f+3     :     0.037956
      f-3     :     0.024561
  9 O s       :     3.443157  s :     3.443157
      pz      :     1.455731  p :     4.305409
      px      :     1.371503
      py      :     1.478175
      dz2     :     0.007952  d :     0.063867
      dxz     :     0.011408
      dyz     :     0.004291
      dx2y2   :     0.017916
      dxy     :     0.022300
      f0      :     0.000524  f :     0.005510
      f+1     :     0.000711
      f-1     :     0.000309
      f+2     :     0.000186
      f-2     :     0.000758
      f+3     :     0.001535
      f-3     :     0.001488
 10 O s       :     3.442957  s :     3.442957
      pz      :     1.520249  p :     4.305350
      px      :     1.328718
      py      :     1.456383
      dz2     :     0.008820  d :     0.063890
      dxz     :     0.017477
      dyz     :     0.009878
      dx2y2   :     0.013757
      dxy     :     0.013958
      f0      :     0.000482  f :     0.005515
      f+1     :     0.000829
      f-1     :     0.000330
      f+2     :     0.001124
      f-2     :     0.001175
      f+3     :     0.000866
      f-3     :     0.000709
 11 H s       :     0.806889  s :     0.806889
      pz      :     0.020895  p :     0.065377
      px      :     0.013069
      py      :     0.031413
 12 H s       :     0.814637  s :     0.814637
      pz      :     0.024059  p :     0.065746
      px      :     0.013647
      py      :     0.028040
 13 H s       :     0.815033  s :     0.815033
      pz      :     0.022965  p :     0.065788
      px      :     0.028476
      py      :     0.014346
 14 H s       :     0.775475  s :     0.775475
      pz      :     0.020594  p :     0.062118
      px      :     0.026697
      py      :     0.014826
 15 H s       :     0.772583  s :     0.772583
      pz      :     0.011423  p :     0.060113
      px      :     0.031560
      py      :     0.017130
 16 H s       :     0.772603  s :     0.772603
      pz      :     0.019446  p :     0.060174
      px      :     0.026335
      py      :     0.014393
 17 H s       :     0.779737  s :     0.779737
      pz      :     0.012103  p :     0.060268
      px      :     0.031309
      py      :     0.016856

SPIN
  0 C s       :     0.000009  s :     0.000009
      pz      :     0.000022  p :     0.000064
      px      :     0.000031
      py      :     0.000010
      dz2     :    -0.000014  d :    -0.000111
      dxz     :    -0.000047
      dyz     :    -0.000008
      dx2y2   :    -0.000020
      dxy     :    -0.000022
      f0      :    -0.000000  f :    -0.000006
      f+1     :    -0.000004
      f-1     :    -0.000000
      f+2     :    -0.000001
      f-2     :    -0.000000
      f+3     :     0.000000
      f-3     :    -0.000001
  1 S s       :    -0.000022  s :    -0.000022
      pz      :    -0.000711  p :    -0.001129
      px      :    -0.000118
      py      :    -0.000300
      dz2     :    -0.000093  d :    -0.000250
      dxz     :    -0.000027
      dyz     :    -0.000058
      dx2y2   :    -0.000082
      dxy     :     0.000010
      f0      :    -0.000000  f :    -0.000036
      f+1     :    -0.000001
      f-1     :    -0.000024
      f+2     :     0.000000
      f-2     :    -0.000005
      f+3     :     0.000001
      f-3     :    -0.000007
  2 C s       :    -0.000124  s :    -0.000124
      pz      :    -0.001874  p :    -0.003151
      px      :    -0.000300
      py      :    -0.000977
      dz2     :     0.000121  d :     0.000444
      dxz     :     0.000113
      dyz     :     0.000033
      dx2y2   :     0.000071
      dxy     :     0.000105
      f0      :     0.000008  f :     0.000068
      f+1     :     0.000015
      f-1     :     0.000001
      f+2     :     0.000008
      f-2     :     0.000013
      f+3     :     0.000018
      f-3     :     0.000004
  3 C s       :     0.000173  s :     0.000173
      pz      :     0.001142  p :     0.002224
      px      :     0.000258
      py      :     0.000823
      dz2     :    -0.000159  d :    -0.000757
      dxz     :    -0.000205
      dyz     :    -0.000098
      dx2y2   :    -0.000225
      dxy     :    -0.000071
      f0      :    -0.000018  f :    -0.000097
      f+1     :    -0.000002
      f-1     :    -0.000026
      f+2     :    -0.000007
      f-2     :    -0.000011
      f+3     :    -0.000024
      f-3     :    -0.000010
  4 C s       :     0.000747  s :     0.000747
      pz      :    -0.001367  p :    -0.000928
      px      :    -0.000291
      py      :     0.000730
      dz2     :     0.000224  d :     0.000734
      dxz     :     0.000010
      dyz     :     0.000282
      dx2y2   :     0.000298
      dxy     :    -0.000080
      f0      :     0.000004  f :     0.000025
      f+1     :     0.000016
      f-1     :     0.000012
      f+2     :     0.000007
      f-2     :    -0.000009
      f+3     :    -0.000014
      f-3     :     0.000009
  5 C s       :    -0.000841  s :    -0.000841
      pz      :     0.001124  p :     0.002527
      px      :     0.001901
      py      :    -0.000498
      dz2     :    -0.000845  d :    -0.001836
      dxz     :    -0.000109
      dyz     :    -0.000600
      dx2y2   :    -0.000398
      dxy     :     0.000115
      f0      :    -0.000014  f :     0.000153
      f+1     :    -0.000030
      f-1     :    -0.000069
      f+2     :     0.000026
      f-2     :     0.000101
      f+3     :     0.000184
      f-3     :    -0.000045
  6 C s       :     0.000764  s :     0.000764
      pz      :    -0.000999  p :    -0.000533
      px      :    -0.000410
      py      :     0.000876
      dz2     :     0.000050  d :     0.000757
      dxz     :     0.000086
      dyz     :     0.000332
      dx2y2   :     0.000395
      dxy     :    -0.000105
      f0      :     0.000009  f :     0.000024
      f+1     :     0.000001
      f-1     :     0.000007
      f+2     :    -0.000001
      f-2     :     0.000006
      f+3     :    -0.000002
      f-3     :     0.000004
  7 C s       :     0.000176  s :     0.000176
      pz      :     0.001153  p :     0.002229
      px      :     0.000251
      py      :     0.000825
      dz2     :    -0.000408  d :    -0.000685
      dxz     :    -0.000047
      dyz     :     0.000018
      dx2y2   :    -0.000058
      dxy     :    -0.000189
      f0      :    -0.000003  f :    -0.000093
      f+1     :    -0.000031
      f-1     :    -0.000020
      f+2     :    -0.000006
      f-2     :    -0.000006
      f+3     :    -0.000005
      f-3     :    -0.000023
  8 C s       :    -0.005728  s :    -0.005728
      pz      :    -0.014903  p :    -0.029063
      px      :     0.000533
      py      :    -0.014694
      dz2     :     0.002044  d :     0.015385
      dxz     :     0.002605
      dyz     :     0.000838
      dx2y2   :    -0.009737
      dxy     :     0.019636
      f0      :     0.001656  f :     0.041335
      f+1     :     0.000984
      f-1     :     0.002706
      f+2     :     0.004955
      f-2     :     0.009944
      f+3     :     0.020899
      f-3     :     0.000191
  9 O s       :     0.006271  s :     0.006271
      pz      :     0.156844  p :     0.481408
      px      :     0.214024
      py      :     0.110540
      dz2     :    -0.000159  d :     0.000616
      dxz     :     0.000367
      dyz     :    -0.000072
      dx2y2   :     0.000440
      dxy     :     0.000040
      f0      :     0.000009  f :    -0.000016
      f+1     :    -0.000010
      f-1     :    -0.000009
      f+2     :    -0.000001
      f-2     :     0.000014
      f+3     :     0.000061
      f-3     :    -0.000079
 10 O s       :     0.006255  s :     0.006255
      pz      :     0.012909  p :     0.480800
      px      :     0.309185
      py      :     0.158706
      dz2     :    -0.000108  d :     0.000618
      dxz     :    -0.000314
      dyz     :     0.000099
      dx2y2   :     0.000735
      dxy     :     0.000206
      f0      :     0.000002  f :    -0.000015
      f+1     :    -0.000036
      f-1     :     0.000005
      f+2     :     0.000054
      f-2     :    -0.000048
      f+3     :     0.000052
      f-3     :    -0.000044
 11 H s       :     0.000004  s :     0.000004
      pz      :     0.000001  p :     0.000002
      px      :     0.000001
      py      :     0.000000
 12 H s       :    -0.000034  s :    -0.000034
      pz      :     0.000001  p :     0.000002
      px      :     0.000001
      py      :     0.000001
 13 H s       :    -0.000035  s :    -0.000035
      pz      :     0.000000  p :     0.000002
      px      :     0.000001
      py      :     0.000000
 14 H s       :    -0.000091  s :    -0.000091
      pz      :     0.000027  p :     0.000055
      px      :     0.000011
      py      :     0.000017
 15 H s       :     0.000765  s :     0.000765
      pz      :    -0.000052  p :     0.000104
      px      :     0.000108
      py      :     0.000047
 16 H s       :     0.000767  s :     0.000767
      pz      :     0.000043  p :     0.000115
      px      :     0.000055
      py      :     0.000016
 17 H s       :    -0.000095  s :    -0.000095
      pz      :     0.000025  p :     0.000055
      px      :     0.000012
      py      :     0.000018


                      *****************************
                      * MAYER POPULATION ANALYSIS *
                      *****************************

  NA   - Mulliken gross atomic population
  ZA   - Total nuclear charge
  QA   - Mulliken gross atomic charge
  VA   - Mayer's total valence
  BVA  - Mayer's bonded valence
  FA   - Mayer's free valence

  ATOM       NA         ZA         QA         VA         BVA        FA
  0 C      6.4224     6.0000    -0.4224     3.9300     3.9300     0.0000
  1 S     16.0376    16.0000    -0.0376     2.4131     2.4131     0.0000
  2 C      5.8636     6.0000     0.1364     3.8605     3.8605     0.0000
  3 C      6.2325     6.0000    -0.2325     3.8806     3.8806     0.0000
  4 C      6.2334     6.0000    -0.2334     4.0107     4.0106     0.0001
  5 C      5.9730     6.0000     0.0270     3.5261     3.5260     0.0001
  6 C      6.2255     6.0000    -0.2255     3.9895     3.9894     0.0001
  7 C      6.1808     6.0000    -0.1808     3.8574     3.8574     0.0000
  8 C      5.5499     6.0000     0.4501     4.2726     4.2666     0.0060
  9 O      8.2708     8.0000    -0.2708     2.2848     2.0157     0.2691
 10 O      8.2709     8.0000    -0.2709     2.2853     2.0168     0.2685
 11 H      0.8101     1.0000     0.1899     0.9573     0.9573     0.0000
 12 H      0.8261     1.0000     0.1739     0.9562     0.9562     0.0000
 13 H      0.8265     1.0000     0.1735     0.9555     0.9555     0.0000
 14 H      0.8094     1.0000     0.1906     0.9565     0.9565     0.0000
 15 H      0.8220     1.0000     0.1780     0.9703     0.9703     0.0000
 16 H      0.8204     1.0000     0.1796     0.9679     0.9679     0.0000
 17 H      0.8250     1.0000     0.1750     0.9663     0.9663    -0.0000

  Mayer bond orders larger than 0.100000
B(  0-C ,  1-S ) :   1.0589 B(  0-C , 11-H ) :   0.9426 B(  0-C , 12-H ) :   0.9539 
B(  0-C , 13-H ) :   0.9535 B(  1-S ,  2-C ) :   1.2120 B(  2-C ,  3-C ) :   1.2836 
B(  2-C ,  7-C ) :   1.2705 B(  3-C ,  4-C ) :   1.4787 B(  3-C , 14-H ) :   0.9614 
B(  4-C ,  5-C ) :   1.3277 B(  4-C , 15-H ) :   0.9609 B(  5-C ,  6-C ) :   1.2958 
B(  5-C ,  8-C ) :   1.0236 B(  6-C ,  7-C ) :   1.5064 B(  6-C , 16-H ) :   0.9702 
B(  7-C , 17-H ) :   0.9767 B(  8-C ,  9-O ) :   1.6163 B(  8-C , 10-O ) :   1.6172 
B(  9-O , 10-O ) :   0.3919 

-------
TIMINGS
-------

Total SCF time: 0 days 0 hours 0 min 53 sec 

Total time                  ....      53.826 sec
Sum of individual times     ....      52.846 sec  ( 98.2%)

Fock matrix formation       ....      50.830 sec  ( 94.4%)
  Split-RI-J                ....       1.981 sec  (  3.9% of F)
  Chain of spheres X        ....      40.589 sec  ( 79.9% of F)
  XC integration            ....       4.302 sec  (  8.5% of F)
    Basis function eval.    ....       0.779 sec  ( 18.1% of XC)
    Density eval.           ....       1.671 sec  ( 38.9% of XC)
    XC-Functional eval.     ....       0.213 sec  (  5.0% of XC)
    XC-Potential eval.      ....       1.220 sec  ( 28.4% of XC)
Diagonalization             ....       0.571 sec  (  1.1%)
Density matrix formation    ....       0.033 sec  (  0.1%)
Population analysis         ....       0.088 sec  (  0.2%)
Initial guess               ....       0.084 sec  (  0.2%)
Orbital Transformation      ....       0.000 sec  (  0.0%)
Orbital Orthonormalization  ....       0.066 sec  (  0.1%)
DIIS solution               ....       0.266 sec  (  0.5%)
Grid generation             ....       0.974 sec  (  1.8%)

Maximum memory used throughout the entire SCF-calculation: 95.0 MB


-------------------------------------------------------------------------------
                          DFT DISPERSION CORRECTION                            
                                                                               
                              DFTD3 V3.1  Rev 1                                
                              USING zero damping                               
-------------------------------------------------------------------------------
The omegaB97X-D3 functional is recognized. Fit by Chai et al.
Active option DFTDOPT                   ...         3   

molecular C6(AA) [au] = 4868.765826 


            DFT-D V3
 parameters
 s6 scaling factor         :     1.0000 
 rs6 scaling factor        :     1.2810 
 s8 scaling factor         :     1.0000 
 rs8 scaling factor        :     1.0940 
 Damping factor alpha6     :    14.0000 
 Damping factor alpha8     :    16.0000 
 ad hoc parameters k1-k3   :    16.0000     1.3333    -4.0000 

 Edisp/kcal,au: -3.501823901136  -0.005580511008 
 E6   /kcal   :  -1.432978501 
 E8   /kcal   :  -2.068845400 
 % E8         :  59.079081592 

-------------------------   ----------------
Dispersion correction           -0.005580511
-------------------------   ----------------


-------------------------   --------------------
FINAL SINGLE POINT ENERGY      -857.719129132957
-------------------------   --------------------

                                *** OPTIMIZATION RUN DONE ***

                            ***************************************
                            *     ORCA property calculations      *
                            ***************************************

                                    ---------------------
                                    Active property flags
                                    ---------------------
   (+) Dipole Moment


------------------------------------------------------------------------------
                       ORCA ELECTRIC PROPERTIES CALCULATION
------------------------------------------------------------------------------

Dipole Moment Calculation                       ... on
Quadrupole Moment Calculation                   ... off
Polarizability Calculation                      ... off
GBWName                                         ... /burg/berkelbach/users/eav2136/projects/peroxide_dissociation/05_range_separated_functional/wb97x-d-radical-dmso/wb97x-d-radical-dmso_opt.gbw
Electron density                                ... /burg/berkelbach/users/eav2136/projects/peroxide_dissociation/05_range_separated_functional/wb97x-d-radical-dmso/wb97x-d-radical-dmso_opt.scfp
The origin for moment calculation is the CENTER OF MASS  = ( 1.621608,  6.634131  2.137162)

-------------
DIPOLE MOMENT
-------------
                                X             Y             Z
Electronic contribution:      2.56202      -6.27596      -5.47517
Nuclear contribution   :     -3.05972       8.23717       7.02872
                        -----------------------------------------
Total Dipole Moment    :     -0.49771       1.96121       1.55355
                        -----------------------------------------
Magnitude (a.u.)       :      2.55099
Magnitude (Debye)      :      6.48411



--------------------
Rotational spectrum 
--------------------
 
Rotational constants in cm-1:     0.107904     0.015109     0.013289 
Rotational constants in MHz :  3234.871201   452.950912   398.381381 

 Dipole components along the rotational axes: 
x,y,z [a.u.] :     2.471202     0.633038    -0.000564 
x,y,z [Debye]:     6.281295     1.609055    -0.001435 

 

Timings for individual modules:

Sum of individual times         ...     2194.703 sec (=  36.578 min)
GTO integral calculation        ...       40.404 sec (=   0.673 min)   1.8 %
SCF iterations                  ...     1900.365 sec (=  31.673 min)  86.6 %
SCF Gradient evaluation         ...      253.384 sec (=   4.223 min)  11.5 %
Geometry relaxation             ...        0.550 sec (=   0.009 min)   0.0 %
                             ****ORCA TERMINATED NORMALLY****
TOTAL RUN TIME: 0 days 0 hours 36 minutes 47 seconds 452 msec
